
Running Job 1 of 1 reac_f.qcin
qchem reac_f.qcin_40878.0 /tmp/reac_f.qcin/ 1
/programs/x86_64/lib/qchem-4.3.2/bin/mpi/mpirun_qchem -machinefile /var/spool/torque/aux//113228.vali -np 1 /programs/x86_64/lib/qchem-4.3.2/exe/qcprog.exe reac_f.qcin_40878.0 /tmp/reac_f.qcin/

Process 0 of 1 is on bt2600-16.csail.mit.edu - thread support 0
initial socket setup ...start
initial socket setup ...done 
now start server 0 ... 

cmd = ssh thor /programs/x86_64/lib/qchem-4.3.2/bin/get_hostid 324945404 > /tmp/reac_f.qcin/lic.dat
                  Welcome to Q-Chem
     A Quantum Leap Into The Future Of Chemistry


 Q-Chem 4.3, Q-Chem, Inc., Pleasanton, CA (2015)

 Y. Shao,  Z. Gan,  E. Epifanovsky,  A. T. B. Gilbert,  M. Wormit,  
 J. Kussmann,  A. W. Lange,  A. Behn,  J. Deng,  X. Feng,  D. Ghosh,  
 M. Goldey,  P. R. Horn,  L. D. Jacobson,  I. Kaliman,  R. Z. Khaliullin,  
 T. Kus,  A. Landau,  J. Liu,  E. I. Proynov,  Y. M. Rhee,  R. M. Richard,  
 M. A. Rohrdanz,  R. P. Steele,  E. J. Sundstrom,  H. L. Woodcock III,  
 P. M. Zimmerman,  D. Zuev,  B. Albrecht,  E. Alguire,  B. Austin,  
 S. A. Baeppler,  G. J. O. Beran,  Y. A. Bernard,  E. Berquist,  
 K. Brandhorst,  K. B. Bravaya,  S. T. Brown,  D. Casanova,  C.-M. Chang,  
 Y. Chen,  S. H. Chien,  K. D. Closser,  D. L. Crittenden,  M. Diedenhofen,  
 R. A. DiStasio Jr.,  H. Do,  A. D. Dutoi,  R. G. Edgar,  P.-T. Fang,  
 S. Fatehi,  Q. Feng,  L. Fusti-Molnar,  A. Ghysels,  
 A. Golubeva-Zadorozhnaya,  J. Gomes,  A. Gunina,  M. W. D. Hanson-Heine,  
 P. H. P. Harbach,  A. W. Hauser,  E. G. Hohenstein,  Z. C. Holden,  K. Hui,  
 T.-C. Jagau,  H. Ji,  B. Kaduk,  K. Khistyaev,  Jaehoon Kim,  Jihan Kim,  
 R. A. King,  P. Klunzinger,  D. Kosenkov,  T. Kowalczyk,  C. M. Krauter,  
 K. U. Lao,  A. Laurent,  K. V. Lawler,  S. Lehtola,  S. V. Levchenko,  
 C. Y. Lin,  Y.-S. Lin,  F. Liu,  E. Livshits,  R. C. Lochan,  A. Luenser,  
 P. Manohar,  S. F. Manzer,  S.-P. Mao,  N. Mardirossian,  A. V. Marenich,  
 L. A. Martinez-Martinez,  S. A. Maurer,  N. J. Mayhall,  K. Nanda,  
 C. M. Oana,  R. Olivares-Amaya,  D. P. O'Neill,  J. A. Parkhill,  
 T. M. Perrine,  R. Peverati,  P. A. Pieniazek,  F. Plasser,  A. Prociuk,  
 D. R. Rehn,  E. Rosta,  N. J. Russ,  N. Sergueev,  S. M. Sharada,  
 S. Sharma,  D. W. Small,  A. Sodt,  T. Stauch,  T. Stein,  D. Stuck,  
 Y.-C. Su,  A. J. W. Thom,  T. Tsuchimochi,  L. Vogt,  O. Vydrov,  T. Wang,  
 M. A. Watson,  J. Wenzel,  A. White,  C. F. Williams,  V. Vanovschi,  
 S. Yeganeh,  S. R. Yost,  Z.-Q. You,  I. Y. Zhang,  X. Zhang,  Y. Zhao,  
 B. R. Brooks,  G. K. L. Chan,  D. M. Chipman,  C. J. Cramer,  
 W. A. Goddard III,  M. S. Gordon,  W. J. Hehre,  A. Klamt,  
 H. F. Schaefer III,  M. W. Schmidt,  C. D. Sherrill,  D. G. Truhlar,  
 A. Warshel,  X. Xu,  A. Aspuru-Guzik,  R. Baer,  A. T. Bell,  N. A. Besley,  
 J.-D. Chai,  A. Dreuw,  B. D. Dunietz,  T. R. Furlani,  S. R. Gwaltney,  
 C.-P. Hsu,  Y. Jung,  J. Kong,  D. S. Lambrecht,  W. Liang,  C. Ochsenfeld,  
 V. A. Rassolov,  L. V. Slipchenko,  J. E. Subotnik,  T. Van Voorhis,  
 J. M. Herbert,  A. I. Krylov,  P. M. W. Gill,  M. Head-Gordon

 Contributors to earlier versions of Q-Chem not listed above: 
 R. D. Adamson,  J. Baker,  E. F. C. Byrd,  A. K. Chakraborty,  C.-L. Cheng,  
 H. Dachsel,  R. J. Doerksen,  G. Hawkins,  A. Heyden,  S. Hirata,  
 G. Kedziora,  F. J. Keil,  C. Kelley,  P. P. Korambath,  W. Kurlancheek,  
 A. M. Lee,  M. S. Lee,  D. Liotard,  I. Lotan,  P. E. Maslen,  N. Nair,  
 D. Neuhauser,  R. Olson,  B. Peters,  J. Ritchie,  N. E. Schultz,  
 N. Shenvi,  A. C. Simmonett,  K. S. Thanthiriwatte,  Q. Wu,  W. Zhang

 Please cite Q-Chem as follows:
 Y. Shao et al., Mol. Phys. 113, 184-215 (2015)
 DOI: 10.1080/00268976.2014.952696

 Q-Chem 4.3.0 for Intel X86 Linux

 Parts of Q-Chem use Armadillo 5.200.1 (Boston Tea Smuggler).
 http://arma.sourceforge.net/

 Q-Chem begins on Sun Apr 23 17:52:48 2017  

Host: 
0

     Scratch files written to /tmp/reac_f.qcin//
 Oct1215 13750_ 19228  19214 4150   
 Parallel job on  1  processors
Processing $rem in /programs/x86_64/lib/qchem-4.3.2/config/preferences.
 MEM_TOTAL  2000 

Checking the input file for inconsistencies... 	...done.

--------------------------------------------------------------
User input:
--------------------------------------------------------------
$rem
JOBTYPE Opt
EXCHANGE B3LYP
BASIS 6-31+G(d)
GUI=2
pdb_print 2
NBO TRUE
$end

$comment
reactantstate
$end

$molecule
-2 1
C        3.29600       -0.86600        2.39400
O        4.50600       -1.03900        2.12000
O        2.92600       -0.95400        3.64500
C        2.15900       -0.62100        1.29800
C        1.96600       -1.76700        0.31200
O        0.94700       -0.47600        2.01100
C        2.44300        0.67600        0.56700
O        1.59900        1.61900        0.54700
C        3.71800        0.81000       -0.11300
H        4.08300       -0.17800       -0.30800
H        4.36500        1.05500        0.71800
H        3.63500        1.42000       -1.07500
H        1.31600       -1.57200       -0.59100
H        1.23900       -2.36100        0.98400
H        2.92900       -2.26400        0.05400
$end

--------------------------------------------------------------
 ----------------------------------------------------------------
             Standard Nuclear Orientation (Angstroms)
    I     Atom           X                Y                Z
 ----------------------------------------------------------------
    1      C       1.2830026172     0.3480087442     0.1757525102
    2      O       1.4934056190     1.5315674351    -0.1764184740
    3      O       2.1928813064    -0.2544305993     0.8960528699
    4      C       0.0033976121    -0.5007857955    -0.2671570292
    5      C      -0.1235337544    -0.7266461583    -1.7690346956
    6      O       0.1441290242    -1.7719361619     0.3350965849
    7      C      -1.2456791660     0.1558269821     0.2859187909
    8      O      -2.0389819342    -0.4731875828     1.0455215787
    9      C      -1.5093668175     1.5352694735    -0.0795784529
   10      H      -0.9793072782     1.7331128758    -0.9891326695
   11      H      -0.8498404139     2.0541798246     0.6022954141
   12      H      -2.6255809964     1.7483281599    -0.1940551011
   13      H      -1.0985184199    -1.1507776935    -2.1504155327
   14      H       0.5493344011    -1.6645924767    -1.7903454717
   15      H       0.2255176351     0.1536051048    -2.3557738550
 ----------------------------------------------------------------
 Molecular Point Group                 C1    NOp =  1
 Largest Abelian Subgroup              C1    NOp =  1
 Nuclear Repulsion Energy =   453.4532808087 hartrees
 There are       35 alpha and       35 beta electrons
 Requested basis set is 6-31+G(d)
 There are 57 shells and 183 basis functions

 Total QAlloc Memory Limit   2000 MB
 Mega-Array Size        61 MB
 MEM_STATIC part        62 MB
 A cutoff of  1.0D-11 yielded   1552 shell pairs
 There are     16644 function pairs
 
 -------------------------------------------------------
 OpenMP Integral Computing Module                       
 Release: version 1.0, May 2013, Q-Chem Inc. Pittsburgh 
 -------------------------------------------------------
 Integral Job Info:
 Integral job number is                      11
 Integral operator is                         1
 short-range coefficients                     0
 long-range coefficients              100000000
 Omega coefficients                           0
 if combine SR and LR in K                    0
 Integral screening is                        0
 Integral computing path is                   2
 max size of driver memory is            800000
 size of driver memory is                593474
 size of scratch memory is              2260544
 max col of scratch BK array               1296
 max len of scratch array in speh3          155
 max len of scratch index in speh4           18
 max int batch size is                      520
 min int batch size is                       52
 fixed nKL is                                52
 max L of basis functions is                  2
 order of int derivative is                   0
 number of shells is                         57
 number of basis is                         183
 number of cartesian basis is               183
 number of contracted shell pairs          1552
 number of primitive shell pairs           5383
 maxK2 (contraction) of shell pair           36
 max number of K2 of shell pair               1
 max number of CS2 of shell pair            205
 max number of PS2 of shell pair           1230
 mem total for path MDJ                   44296
 -------------------------------------------------------
 Smallest overlap matrix eigenvalue = 3.09E-05

 Scale SEOQF with 1.000000e-01/1.000000e-01/1.000000e-01

 Standard Electronic Orientation quadrupole field applied
 Nucleus-field energy     =     0.0000000050 hartrees
 Guess from superposition of atomic densities
 Warning:  Energy on first SCF cycle will be non-variational
 A restricted hybrid HF-DFT SCF calculation will be
 performed using Pulay DIIS extrapolation
 Exchange:     0.2000 Hartree-Fock + 0.0800 Slater + 0.7200 B88
 Correlation:  0.1900 VWN1RPA + 0.8100 LYP
 Using SG-1 standard quadrature grid
 SCF converges when DIIS error is below 1.0E-08
 CPU 0.00 s  wall 0.00 s
 Inaccurate integrated density:
   Number of electrons =    70
   Numerical integral  =    68.000112916524
   Relative error      =    -2.8569815478 %
 CPU 4.93 s  wall 4.93 s
 ---------------------------------------
  Cycle       Energy         DIIS Error
 ---------------------------------------
    1    -496.1604867863      4.83E-02
 CPU 0.00 s  wall 0.00 s
 CPU 5.49 s  wall 5.49 s
    2    -494.4637324651      1.11E-02
 CPU 0.00 s  wall 0.00 s
 CPU 5.51 s  wall 5.51 s
    3    -485.6971659013      3.46E-02
 CPU 0.00 s  wall 0.00 s
 CPU 5.49 s  wall 5.49 s
    4    -494.4992341945      1.06E-02
 CPU 0.00 s  wall 0.00 s
 CPU 5.46 s  wall 5.46 s
    5    -494.8921342201      3.02E-03
 CPU 0.00 s  wall 0.00 s
 CPU 5.45 s  wall 5.46 s
    6    -494.9043590947      3.26E-03
 CPU 0.00 s  wall 0.00 s
 CPU 5.41 s  wall 5.41 s
    7    -494.9384955557      9.08E-04
 CPU 0.00 s  wall 0.00 s
 CPU 5.39 s  wall 5.39 s
    8    -494.9402351420      5.43E-04
 CPU 0.00 s  wall 0.00 s
 CPU 5.37 s  wall 5.37 s
    9    -494.9413508287      8.66E-05
 CPU 0.00 s  wall 0.00 s
 CPU 5.28 s  wall 5.28 s
   10    -494.9413723915      4.60E-05
 CPU 0.00 s  wall 0.00 s
 CPU 5.23 s  wall 5.23 s
   11    -494.9413789021      1.88E-05
 CPU 0.00 s  wall 0.00 s
 CPU 5.18 s  wall 5.18 s
   12    -494.9413801117      6.77E-06
 CPU 0.00 s  wall 0.00 s
 CPU 5.13 s  wall 5.13 s
   13    -494.9413803122      1.80E-06
 CPU 0.00 s  wall 0.00 s
 CPU 5.04 s  wall 5.04 s
   14    -494.9413803263      3.21E-07
 CPU 0.00 s  wall 0.00 s
 CPU 4.92 s  wall 4.92 s
   15    -494.9413803256      1.49E-07
 CPU 0.00 s  wall 0.00 s
 CPU 4.83 s  wall 4.83 s
   16    -494.9413803255      3.81E-08
 CPU 0.00 s  wall 0.00 s
 CPU 4.62 s  wall 4.62 s
   17    -494.9413803253      1.30E-08
 CPU 0.00 s  wall 0.00 s
 CPU 4.41 s  wall 4.41 s
   18    -494.9413803244      5.31E-09 Convergence criterion met
 ---------------------------------------
 SCF time:  CPU 220.20 s  wall 219.32 s
 SCF   energy in the final basis set = -494.9413803244
 Total energy in the final basis set = -494.9413803244
 
 --------------------------------------------------------------
 
                    Orbital Energies (a.u.)
 --------------------------------------------------------------
 
 Alpha MOs
 -- Occupied --
-18.848 -18.781 -18.757 -18.707  -9.976  -9.948  -9.920  -9.914
 -9.903  -0.723  -0.695  -0.587  -0.565  -0.493  -0.417  -0.328
 -0.238  -0.194  -0.191  -0.148  -0.145  -0.131  -0.115  -0.098
 -0.070  -0.067  -0.051  -0.040   0.002   0.047   0.069   0.083
  0.109   0.145   0.156
 -- Virtual --
  0.216   0.231   0.254   0.261   0.278   0.284   0.292   0.298
  0.308   0.318   0.324   0.336   0.341   0.352   0.361   0.362
  0.382   0.387   0.391   0.418   0.433   0.450   0.459   0.481
  0.485   0.498   0.515   0.522   0.539   0.540   0.556   0.565
  0.570   0.581   0.583   0.594   0.609   0.611   0.622   0.636
  0.640   0.646   0.661   0.677   0.682   0.686   0.709   0.739
  0.762   0.766   0.824   0.850   0.930   0.938   0.951   0.983
  1.023   1.033   1.050   1.090   1.122   1.129   1.157   1.170
  1.187   1.205   1.223   1.245   1.271   1.297   1.345   1.358
  1.412   1.457   1.481   1.521   1.542   1.564   1.589   1.614
  1.628   1.644   1.670   1.681   1.686   1.717   1.733   1.747
  1.777   1.818   1.828   1.842   1.869   1.930   1.958   1.987
  2.051   2.059   2.077   2.100   2.125   2.144   2.166   2.189
  2.214   2.217   2.240   2.261   2.287   2.293   2.325   2.349
  2.375   2.406   2.434   2.445   2.458   2.500   2.543   2.575
  2.597   2.629   2.680   2.689   2.764   2.783   2.839   2.913
  2.952   2.971   3.028   3.100   3.151   3.280   3.324   3.368
  3.436   3.492   3.582   4.454   4.538   4.582   4.613   4.701
  4.788   4.842   4.960   5.151
 --------------------------------------------------------------
 
          Ground-State Mulliken Net Atomic Charges

     Atom                 Charge (a.u.)
  ----------------------------------------
      1 C                     0.265757
      2 O                    -0.603746
      3 O                    -0.592695
      4 C                    -0.245765
      5 C                    -0.614859
      6 O                    -0.619157
      7 C                     0.280029
      8 O                    -0.468669
      9 C                    -0.591479
     10 H                     0.241872
     11 H                     0.252777
     12 H                     0.150545
     13 H                     0.156956
     14 H                     0.233883
     15 H                     0.154551
  ----------------------------------------
  Sum of atomic charges =    -2.000000

 -----------------------------------------------------------------
                    Cartesian Multipole Moments
 -----------------------------------------------------------------
    Charge (ESU x 10^10)
                -9.6064
    Dipole Moment (Debye)
         X      -5.3435      Y       4.2533      Z      -3.6343
       Tot       7.7364
    Quadrupole Moments (Debye-Ang)
        XX     -94.0854     XY      -5.8377     YY     -86.2375
        XZ      -1.1244     YZ       5.4760     ZZ     -72.2226
    Octopole Moments (Debye-Ang^2)
       XXX     -18.8664    XXY      -7.4364    XYY      -6.9165
       YYY       9.4150    XXZ     -23.6784    XYZ       1.1463
       YYZ       2.4801    XZZ       2.7178    YZZ       7.4143
       ZZZ      25.4192
    Hexadecapole Moments (Debye-Ang^3)
      XXXX    -945.3809   XXXY      -5.9083   XXYY    -260.7898
      XYYY       0.8105   YYYY    -630.7646   XXXZ     -12.4002
      XXYZ       8.1061   XYYZ      -1.3341   YYYZ       5.1609
      XXZZ    -228.0366   XYZZ       0.9532   YYZZ    -159.3829
      XZZZ     -13.1845   YZZZ     -14.8911   ZZZZ    -455.2057
 -----------------------------------------------------------------
 Calculating analytic gradient of the SCF energy
 CPU 0.00 s  wall 0.00 s
 CPU 8.45 s  wall 8.45 s
 Gradient of SCF Energy
            1           2           3           4           5           6
    1  -0.0729770   0.0242065   0.0389778  -0.0071125  -0.0187591   0.0126351
    2   0.0280449  -0.0336930  -0.0098155   0.0674445   0.0268545  -0.0200805
    3  -0.0336607   0.0229231   0.0220603  -0.0636255   0.0196067   0.0229937
            7           8           9          10          11          12
    1   0.0349810  -0.0191115   0.0209176  -0.0006686   0.0096867  -0.0260487
    2   0.0577081  -0.0301278  -0.0160364  -0.0062361  -0.0220875  -0.0046771
    3  -0.0319592   0.0252272   0.0177494   0.0198113  -0.0142321  -0.0140250
           13          14          15
    1  -0.0070663   0.0085737   0.0017654
    2  -0.0156248  -0.0309292   0.0092560
    3  -0.0115255   0.0135920   0.0050644
 Max gradient component =       7.298E-02
 RMS gradient           =       2.795E-02
 Gradient time:  CPU 66.99 s  wall 67.01 s
 Geometry Optimization Parameters
   NAtoms,    NIC,     NZ,  NCons,   NDum,   NFix, NCnnct, MaxDiis
       15      95       0       0       0       0       0       0


** GEOMETRY OPTIMIZATION IN DELOCALIZED INTERNAL COORDINATES **
   Searching for a Minimum

   Optimization Cycle:   1

                       Coordinates (Angstroms)
     ATOM                X               Y               Z
      1  C         1.2830026172    0.3480087442    0.1757525102
      2  O         1.4934056190    1.5315674351   -0.1764184740
      3  O         2.1928813064   -0.2544305993    0.8960528699
      4  C         0.0033976121   -0.5007857955   -0.2671570292
      5  C        -0.1235337544   -0.7266461583   -1.7690346956
      6  O         0.1441290242   -1.7719361619    0.3350965849
      7  C        -1.2456791660    0.1558269821    0.2859187909
      8  O        -2.0389819342   -0.4731875828    1.0455215787
      9  C        -1.5093668175    1.5352694735   -0.0795784529
     10  H        -0.9793072782    1.7331128758   -0.9891326695
     11  H        -0.8498404139    2.0541798246    0.6022954141
     12  H        -2.6255809964    1.7483281599   -0.1940551011
     13  H        -1.0985184199   -1.1507776935   -2.1504155327
     14  H         0.5493344011   -1.6645924767   -1.7903454717
     15  H         0.2255176351    0.1536051048   -2.3557738550
   Point Group: c1    Number of degrees of freedom:    39


   Energy is   -494.941380324


 Attempting to Generate Delocalized Internal Coordinates

 39 Hessian modes will be used to form the next step
  Hessian Eigenvalues:
     0.002000    0.002136    0.005996    0.007107    0.011339    0.015634
     0.047125    0.050076    0.070283    0.074411    0.075270    0.089124
     0.094661    0.160000    0.160000    0.160000    0.160000    0.160000
     0.160000    0.193935    0.200091    0.239327    0.250000    0.250000
     0.250000    0.250000    0.283055    0.294230    0.299788    0.306126
     0.307884    0.321827    0.358385    0.370833    0.380882    0.434349
     0.651435    0.776970    0.822693

 Minimum Search - Taking Simple RFO Step
 Searching for Lamda that Minimizes Along All modes
 Value Taken    Lamda =  -0.06342989
 Calculated Step too Large.  Step scaled by  0.560172
 Step Taken.  Stepsize is  0.300000

                             Maximum     Tolerance    Cnvgd?
         Gradient           0.079179      0.000300      NO
         Displacement       0.132205      0.001200      NO
         Energy change     *********      0.000001      NO


 New Cartesian Coordinates Obtained by Inverse Iteration

 Displacement from previous Coordinates is:  0.441025
 ----------------------------------------------------------------
             Standard Nuclear Orientation (Angstroms)
    I     Atom           X                Y                Z
 ----------------------------------------------------------------
    1      C       1.2861087893     0.3326448828     0.1794991676
    2      O       1.3659528268     1.5276368626    -0.2249227872
    3      O       2.2136869277    -0.2118081609     0.8905744878
    4      C       0.0125823303    -0.5667653802    -0.2253731319
    5      C      -0.0981249027    -0.7389489807    -1.7549800105
    6      O       0.1309080094    -1.8413498335     0.3323479184
    7      C      -1.2514231498     0.1250175683     0.3047445749
    8      O      -2.0791391322    -0.4504832466     1.0452275178
    9      C      -1.4854117712     1.5384345213    -0.0833485707
   10      H      -0.9552204013     1.7438909472    -1.0058309543
   11      H      -0.8601752718     2.1030525729     0.6096983277
   12      H      -2.5766674840     1.7696930345    -0.1901264489
   13      H      -1.0849532896    -1.1216564810    -2.1114323919
   14      H       0.5671103991    -1.6437666002    -1.8705728748
   15      H       0.2356255549     0.1519504256    -2.3267783572
 ----------------------------------------------------------------
 Molecular Point Group                 C1    NOp =  1
 Largest Abelian Subgroup              C1    NOp =  1
 Nuclear Repulsion Energy =   452.5053977951 hartrees
 There are       35 alpha and       35 beta electrons
 Applying Cartesian multipole field
    Component          Value
    ---------          -----
     (2,0,0)        1.00000E-11
     (0,2,0)        2.00000E-11
     (0,0,2)       -3.00000E-11
 Nucleus-field energy     =     0.0000000051 hartrees
 Requested basis set is 6-31+G(d)
 There are 57 shells and 183 basis functions
 A cutoff of  1.0D-11 yielded   1556 shell pairs
 There are     16694 function pairs
 Smallest overlap matrix eigenvalue = 2.97E-05
 Guess MOs from SCF MO coefficient file
 Reading MOs from coefficient file
 Reading MOs from coefficient file
 A restricted hybrid HF-DFT SCF calculation will be
 performed using Pulay DIIS extrapolation
 Exchange:     0.2000 Hartree-Fock + 0.0800 Slater + 0.7200 B88
 Correlation:  0.1900 VWN1RPA + 0.8100 LYP
 Using SG-1 standard quadrature grid
 SCF converges when DIIS error is below 1.0E-08
Geometry optimization detected.  Setting ReadMinima to 0
Setting SaveMinima to 0
 CPU 0.00 s  wall 0.00 s
 Inaccurate integrated density:
   Number of electrons =    70
   Numerical integral  =    70.131854316171
   Relative error      =     0.1883633088 %
 CPU 7.08 s  wall 7.08 s
 ---------------------------------------
  Cycle       Energy         DIIS Error
 ---------------------------------------
    1    -494.9703855704      3.43E-03
 CPU 0.00 s  wall 0.00 s
 CPU 5.42 s  wall 5.42 s
    2    -494.9616956362      1.36E-03
 CPU 0.00 s  wall 0.00 s
 CPU 5.42 s  wall 5.42 s
    3    -494.9413691229      2.85E-03
 CPU 0.00 s  wall 0.00 s
 CPU 5.40 s  wall 5.40 s
    4    -494.9694478326      3.12E-04
 CPU 0.00 s  wall 0.00 s
 CPU 5.35 s  wall 5.35 s
    5    -494.9698283834      1.72E-04
 CPU 0.00 s  wall 0.00 s
 CPU 5.29 s  wall 5.29 s
    6    -494.9699134607      7.12E-05
 CPU 0.00 s  wall 0.00 s
 CPU 5.23 s  wall 5.23 s
    7    -494.9699301335      1.28E-05
 CPU 0.00 s  wall 0.00 s
 CPU 5.18 s  wall 5.18 s
    8    -494.9699308159      3.43E-06
 CPU 0.00 s  wall 0.00 s
 CPU 5.09 s  wall 5.09 s
    9    -494.9699308634      1.93E-06
 CPU 0.00 s  wall 0.00 s
 CPU 5.00 s  wall 5.00 s
   10    -494.9699308767      7.93E-07
 CPU 0.00 s  wall 0.00 s
 CPU 4.93 s  wall 4.93 s
   11    -494.9699308775      3.33E-07
 CPU 0.00 s  wall 0.00 s
 CPU 4.88 s  wall 4.88 s
   12    -494.9699308787      7.21E-08
 CPU 0.00 s  wall 0.00 s
 CPU 4.66 s  wall 4.66 s
   13    -494.9699308794      3.41E-08
 CPU 0.00 s  wall 0.00 s
 CPU 4.46 s  wall 4.46 s
   14    -494.9699308789      7.63E-09 Convergence criterion met
 ---------------------------------------
 SCF time:  CPU 171.77 s  wall 171.31 s
 SCF   energy in the final basis set = -494.9699308789
 Total energy in the final basis set = -494.9699308789
 
 --------------------------------------------------------------
 
                    Orbital Energies (a.u.)
 --------------------------------------------------------------
 
 Alpha MOs
 -- Occupied --
-18.850 -18.780 -18.766 -18.711  -9.977  -9.949  -9.915  -9.914
 -9.898  -0.731  -0.694  -0.597  -0.571  -0.478  -0.416  -0.326
 -0.234  -0.189  -0.180  -0.145  -0.141  -0.130  -0.113  -0.095
 -0.076  -0.071  -0.054  -0.044  -0.005   0.046   0.067   0.076
  0.102   0.141   0.150
 -- Virtual --
  0.218   0.232   0.257   0.262   0.280   0.286   0.295   0.299
  0.309   0.318   0.325   0.337   0.341   0.352   0.360   0.366
  0.383   0.386   0.395   0.413   0.432   0.459   0.468   0.484
  0.488   0.499   0.521   0.523   0.537   0.544   0.558   0.567
  0.568   0.580   0.584   0.592   0.606   0.609   0.623   0.634
  0.637   0.645   0.656   0.673   0.676   0.683   0.701   0.734
  0.758   0.775   0.817   0.861   0.927   0.938   0.956   0.986
  1.027   1.038   1.057   1.101   1.130   1.141   1.150   1.165
  1.186   1.205   1.221   1.253   1.271   1.304   1.343   1.370
  1.420   1.442   1.480   1.520   1.534   1.564   1.591   1.615
  1.623   1.645   1.673   1.682   1.686   1.726   1.727   1.745
  1.778   1.811   1.826   1.840   1.861   1.925   1.956   1.978
  2.033   2.042   2.068   2.089   2.120   2.137   2.177   2.194
  2.203   2.214   2.229   2.278   2.288   2.300   2.308   2.346
  2.376   2.383   2.439   2.459   2.493   2.502   2.549   2.584
  2.601   2.637   2.673   2.707   2.753   2.777   2.831   2.909
  2.950   2.987   3.028   3.078   3.164   3.283   3.334   3.379
  3.450   3.477   3.582   4.443   4.550   4.585   4.612   4.703
  4.786   4.863   4.962   5.138
 --------------------------------------------------------------
 
          Ground-State Mulliken Net Atomic Charges

     Atom                 Charge (a.u.)
  ----------------------------------------
      1 C                     0.294910
      2 O                    -0.613484
      3 O                    -0.594770
      4 C                    -0.226288
      5 C                    -0.604137
      6 O                    -0.638147
      7 C                     0.294034
      8 O                    -0.472328
      9 C                    -0.619560
     10 H                     0.240939
     11 H                     0.244788
     12 H                     0.147724
     13 H                     0.157676
     14 H                     0.224895
     15 H                     0.163750
  ----------------------------------------
  Sum of atomic charges =    -2.000000

 -----------------------------------------------------------------
                    Cartesian Multipole Moments
 -----------------------------------------------------------------
    Charge (ESU x 10^10)
                -9.6064
    Dipole Moment (Debye)
         X      -4.8948      Y       4.2563      Z      -3.4308
       Tot       7.3380
    Quadrupole Moments (Debye-Ang)
        XX     -93.3728     XY      -5.5742     YY     -87.1327
        XZ      -0.9010     YZ       5.4928     ZZ     -71.8288
    Octopole Moments (Debye-Ang^2)
       XXX     -14.1231    XXY      -6.5018    XYY      -5.5752
       YYY      14.8982    XXZ     -23.6920    XYZ       1.2103
       YYZ       2.4091    XZZ       3.3795    YZZ       8.1753
       ZZZ      24.6177
    Hexadecapole Moments (Debye-Ang^3)
      XXXX    -935.1827   XXXY      -2.0696   XXYY    -258.9227
      XYYY       2.9240   YYYY    -648.1197   XXXZ      -7.8161
      XXYZ       8.2428   XYYZ      -0.1890   YYYZ       6.6825
      XXZZ    -224.7669   XYZZ       0.5529   YYZZ    -161.6469
      XZZZ      -8.9233   YZZZ     -14.8090   ZZZZ    -447.9720
 -----------------------------------------------------------------
 Calculating analytic gradient of the SCF energy
 CPU 0.00 s  wall 0.00 s
 CPU 8.47 s  wall 8.47 s
 Gradient of SCF Energy
            1           2           3           4           5           6
    1  -0.0479018   0.0115773   0.0292983  -0.0057215  -0.0118612   0.0092507
    2   0.0132241  -0.0150596  -0.0087693   0.0576512   0.0165281  -0.0226309
    3  -0.0228258   0.0124576   0.0184495  -0.0471970   0.0143864   0.0164921
            7           8           9          10          11          12
    1   0.0223832  -0.0140912   0.0050101   0.0017090   0.0108612  -0.0136464
    2   0.0287379  -0.0162416  -0.0098151  -0.0023140  -0.0123663  -0.0031791
    3  -0.0166790   0.0158356   0.0148240   0.0099471  -0.0077599  -0.0112785
           13          14          15
    1  -0.0028656   0.0041475   0.0018502
    2  -0.0102285  -0.0213723   0.0058353
    3  -0.0067668   0.0072453   0.0028694
 Max gradient component =       5.765E-02
 RMS gradient           =       1.886E-02
 Gradient time:  CPU 67.34 s  wall 67.37 s
 Geometry Optimization Parameters
   NAtoms,    NIC,     NZ,  NCons,   NDum,   NFix, NCnnct, MaxDiis
       15      95       0       0       0       0       0       0

 Cartesian Hessian Update
 Hessian Updated using BFGS Update


** GEOMETRY OPTIMIZATION IN DELOCALIZED INTERNAL COORDINATES **
   Searching for a Minimum

   Optimization Cycle:   2

                       Coordinates (Angstroms)
     ATOM                X               Y               Z
      1  C         1.2861087893    0.3326448828    0.1794991676
      2  O         1.3659528268    1.5276368626   -0.2249227872
      3  O         2.2136869277   -0.2118081609    0.8905744878
      4  C         0.0125823303   -0.5667653802   -0.2253731319
      5  C        -0.0981249027   -0.7389489807   -1.7549800105
      6  O         0.1309080094   -1.8413498335    0.3323479184
      7  C        -1.2514231498    0.1250175683    0.3047445749
      8  O        -2.0791391322   -0.4504832466    1.0452275178
      9  C        -1.4854117712    1.5384345213   -0.0833485707
     10  H        -0.9552204013    1.7438909472   -1.0058309543
     11  H        -0.8601752718    2.1030525729    0.6096983277
     12  H        -2.5766674840    1.7696930345   -0.1901264489
     13  H        -1.0849532896   -1.1216564810   -2.1114323919
     14  H         0.5671103991   -1.6437666002   -1.8705728748
     15  H         0.2356255549    0.1519504256   -2.3267783572
   Point Group: c1    Number of degrees of freedom:    39


   Energy is   -494.969930879

 Hessian Updated using BFGS Update

 34 Hessian modes will be used to form the next step
  Hessian Eigenvalues:
     0.002001    0.002171    0.005990    0.007080    0.011334    0.015644
     0.047001    0.055172    0.069365    0.074018    0.074552    0.086633
     0.096359    0.150603    0.160835    0.189534    0.202965    0.232695
     0.242594    0.250000    0.273761    0.285307    0.295270    0.299956
     0.306435    0.309010    0.321687    0.360660    0.367312    0.373368
     0.439278    0.625642    0.766928    0.823459

 Minimum Search - Taking Simple RFO Step
 Searching for Lamda that Minimizes Along All modes
 Value Taken    Lamda =  -0.03685265
 Calculated Step too Large.  Step scaled by  0.577703
 Step Taken.  Stepsize is  0.300000

                             Maximum     Tolerance    Cnvgd?
         Gradient           0.051582      0.000300      NO
         Displacement       0.105665      0.001200      NO
         Energy change     -0.028551      0.000001      NO


 New Cartesian Coordinates Obtained by Inverse Iteration

 Displacement from previous Coordinates is:  0.476119
 ----------------------------------------------------------------
             Standard Nuclear Orientation (Angstroms)
    I     Atom           X                Y                Z
 ----------------------------------------------------------------
    1      C       1.3291843120     0.2914682562     0.1938171012
    2      O       1.3908028592     1.4642657479    -0.2974371039
    3      O       2.2499933054    -0.2441355405     0.8726544416
    4      C       0.0309265866    -0.6166308554    -0.1746577005
    5      C      -0.0667561924    -0.7310737480    -1.7320572647
    6      O       0.1017025809    -1.8724293842     0.3547525222
    7      C      -1.2475271662     0.1152954790     0.3218939298
    8      O      -2.0869485372    -0.4285819867     1.0472116569
    9      C      -1.5099318013     1.5440133363    -0.1028877411
   10      H      -1.0039619543     1.7623878217    -1.0440599702
   11      H      -0.9484847886     2.1795338977     0.5893001493
   12      H      -2.5941751582     1.7402914661    -0.1783927073
   13      H      -1.0710668194    -1.0571473003    -2.0663174704
   14      H       0.5822341690    -1.5998059343    -1.9362452628
   15      H       0.2648680392     0.1700908765    -2.2788481132
 ----------------------------------------------------------------
 Molecular Point Group                 C1    NOp =  1
 Largest Abelian Subgroup              C1    NOp =  1
 Nuclear Repulsion Energy =   451.4054934477 hartrees
 There are       35 alpha and       35 beta electrons
 Applying Cartesian multipole field
    Component          Value
    ---------          -----
     (2,0,0)        1.00000E-11
     (0,2,0)        2.00000E-11
     (0,0,2)       -3.00000E-11
 Nucleus-field energy     =     0.0000000053 hartrees
 Requested basis set is 6-31+G(d)
 There are 57 shells and 183 basis functions
 A cutoff of  1.0D-11 yielded   1554 shell pairs
 There are     16654 function pairs
 Smallest overlap matrix eigenvalue = 2.87E-05
 Guess MOs from SCF MO coefficient file
 Reading MOs from coefficient file
 Reading MOs from coefficient file
 A restricted hybrid HF-DFT SCF calculation will be
 performed using Pulay DIIS extrapolation
 Exchange:     0.2000 Hartree-Fock + 0.0800 Slater + 0.7200 B88
 Correlation:  0.1900 VWN1RPA + 0.8100 LYP
 Using SG-1 standard quadrature grid
 SCF converges when DIIS error is below 1.0E-08
Geometry optimization detected.  Setting ReadMinima to 0
Setting SaveMinima to 0
 CPU 0.00 s  wall 0.00 s
 Inaccurate integrated density:
   Number of electrons =    70
   Numerical integral  =    70.105902410276
   Relative error      =     0.1512891575 %
 CPU 7.03 s  wall 7.03 s
 ---------------------------------------
  Cycle       Energy         DIIS Error
 ---------------------------------------
    1    -494.9991974882      2.51E-03
 CPU 0.00 s  wall 0.00 s
 CPU 5.37 s  wall 5.37 s
    2    -494.9794990289      1.17E-03
 CPU 0.00 s  wall 0.00 s
 CPU 5.39 s  wall 5.39 s
    3    -494.9687933321      2.19E-03
 CPU 0.00 s  wall 0.00 s
 CPU 5.35 s  wall 5.35 s
    4    -494.9855421951      2.52E-04
 CPU 0.00 s  wall 0.00 s
 CPU 5.30 s  wall 5.30 s
    5    -494.9857809218      1.41E-04
 CPU 0.00 s  wall 0.00 s
 CPU 5.24 s  wall 5.24 s
    6    -494.9858387006      5.72E-05
 CPU 0.00 s  wall 0.00 s
 CPU 5.19 s  wall 5.19 s
    7    -494.9858492940      1.20E-05
 CPU 0.00 s  wall 0.00 s
 CPU 5.12 s  wall 5.12 s
    8    -494.9858498840      3.06E-06
 CPU 0.00 s  wall 0.00 s
 CPU 5.04 s  wall 5.04 s
    9    -494.9858499151      1.82E-06
 CPU 0.00 s  wall 0.00 s
 CPU 4.94 s  wall 4.94 s
   10    -494.9858499262      6.60E-07
 CPU 0.00 s  wall 0.00 s
 CPU 4.86 s  wall 4.86 s
   11    -494.9858499264      2.08E-07
 CPU 0.00 s  wall 0.00 s
 CPU 4.80 s  wall 4.80 s
   12    -494.9858499267      3.95E-08
 CPU 0.00 s  wall 0.00 s
 CPU 4.58 s  wall 4.58 s
   13    -494.9858499269      1.66E-08
 CPU 0.00 s  wall 0.00 s
 CPU 4.26 s  wall 4.26 s
   14    -494.9858499261      3.65E-09 Convergence criterion met
 ---------------------------------------
 SCF time:  CPU 169.34 s  wall 168.94 s
 SCF   energy in the final basis set = -494.9858499261
 Total energy in the final basis set = -494.9858499261
 
 --------------------------------------------------------------
 
                    Orbital Energies (a.u.)
 --------------------------------------------------------------
 
 Alpha MOs
 -- Occupied --
-18.852 -18.776 -18.771 -18.715  -9.976  -9.947  -9.915  -9.914
 -9.891  -0.739  -0.695  -0.605  -0.581  -0.469  -0.414  -0.321
 -0.231  -0.187  -0.173  -0.145  -0.137  -0.129  -0.114  -0.092
 -0.081  -0.074  -0.058  -0.045  -0.013   0.045   0.066   0.073
  0.098   0.137   0.147
 -- Virtual --
  0.218   0.234   0.259   0.264   0.281   0.288   0.296   0.300
  0.310   0.317   0.325   0.337   0.342   0.351   0.359   0.371
  0.383   0.385   0.400   0.408   0.429   0.466   0.474   0.487
  0.492   0.503   0.518   0.523   0.537   0.547   0.558   0.564
  0.569   0.581   0.583   0.591   0.603   0.608   0.622   0.632
  0.636   0.647   0.654   0.671   0.673   0.681   0.702   0.732
  0.752   0.792   0.811   0.882   0.922   0.936   0.960   0.989
  1.029   1.043   1.061   1.112   1.135   1.139   1.154   1.163
  1.189   1.204   1.223   1.257   1.269   1.312   1.346   1.378
  1.421   1.444   1.479   1.519   1.530   1.563   1.591   1.611
  1.628   1.644   1.671   1.686   1.690   1.720   1.723   1.743
  1.775   1.797   1.826   1.833   1.853   1.913   1.940   1.968
  2.021   2.032   2.066   2.081   2.116   2.124   2.183   2.191
  2.193   2.212   2.230   2.275   2.282   2.299   2.305   2.333
  2.371   2.387   2.442   2.479   2.495   2.521   2.550   2.595
  2.611   2.647   2.677   2.717   2.754   2.780   2.836   2.902
  2.950   2.997   3.042   3.075   3.177   3.293   3.343   3.389
  3.472   3.476   3.587   4.439   4.551   4.593   4.606   4.711
  4.775   4.884   4.957   5.130
 --------------------------------------------------------------
 
          Ground-State Mulliken Net Atomic Charges

     Atom                 Charge (a.u.)
  ----------------------------------------
      1 C                     0.302136
      2 O                    -0.617612
      3 O                    -0.583579
      4 C                    -0.264677
      5 C                    -0.559221
      6 O                    -0.640163
      7 C                     0.306947
      8 O                    -0.465215
      9 C                    -0.644133
     10 H                     0.234295
     11 H                     0.230320
     12 H                     0.151265
     13 H                     0.157356
     14 H                     0.214695
     15 H                     0.177583
  ----------------------------------------
  Sum of atomic charges =    -2.000000

 -----------------------------------------------------------------
                    Cartesian Multipole Moments
 -----------------------------------------------------------------
    Charge (ESU x 10^10)
                -9.6064
    Dipole Moment (Debye)
         X      -4.8660      Y       4.2542      Z      -3.0755
       Tot       7.1579
    Quadrupole Moments (Debye-Ang)
        XX     -93.7205     XY      -5.4668     YY     -87.0811
        XZ      -0.5043     YZ       5.9712     ZZ     -71.7511
    Octopole Moments (Debye-Ang^2)
       XXX     -16.9725    XXY      -6.4123    XYY      -5.3265
       YYY      19.4628    XXZ     -22.6526    XYZ       2.0650
       YYZ       2.7065    XZZ       3.1141    YZZ       9.3420
       ZZZ      24.7497
    Hexadecapole Moments (Debye-Ang^3)
      XXXX    -958.6224   XXXY       4.4201   XXYY    -262.0879
      XYYY       9.4040   YYYY    -647.3651   XXXZ      -4.0358
      XXYZ      12.3246   XYYZ       0.6996   YYYZ      13.5300
      XXZZ    -226.6202   XYZZ       1.7570   YYZZ    -162.1377
      XZZZ      -5.0546   YZZZ     -10.2678   ZZZZ    -444.0279
 -----------------------------------------------------------------
 Calculating analytic gradient of the SCF energy
 CPU 0.00 s  wall 0.00 s
 CPU 8.42 s  wall 8.42 s
 Gradient of SCF Energy
            1           2           3           4           5           6
    1  -0.0231112   0.0078200   0.0115313  -0.0023528  -0.0035066   0.0049301
    2   0.0030858  -0.0080894  -0.0026224   0.0379588   0.0045406  -0.0146592
    3  -0.0009969   0.0041639   0.0027328  -0.0308079   0.0086080   0.0105312
            7           8           9          10          11          12
    1   0.0083292  -0.0032875  -0.0072144   0.0022411   0.0082297  -0.0039108
    2   0.0083856  -0.0050478  -0.0045958   0.0002546  -0.0054578  -0.0028706
    3  -0.0033579   0.0034796   0.0111998   0.0047681  -0.0050335  -0.0068245
           13          14          15
    1   0.0001001  -0.0017031   0.0019051
    2  -0.0049736  -0.0081180   0.0022093
    3  -0.0025686   0.0031871   0.0009189
 Max gradient component =       3.796E-02
 RMS gradient           =       9.919E-03
 Gradient time:  CPU 66.56 s  wall 66.59 s
 Geometry Optimization Parameters
   NAtoms,    NIC,     NZ,  NCons,   NDum,   NFix, NCnnct, MaxDiis
       15      95       0       0       0       0       0       0

 Cartesian Hessian Update
 Hessian Updated using BFGS Update


** GEOMETRY OPTIMIZATION IN DELOCALIZED INTERNAL COORDINATES **
   Searching for a Minimum

   Optimization Cycle:   3

                       Coordinates (Angstroms)
     ATOM                X               Y               Z
      1  C         1.3291843120    0.2914682562    0.1938171012
      2  O         1.3908028592    1.4642657479   -0.2974371039
      3  O         2.2499933054   -0.2441355405    0.8726544416
      4  C         0.0309265866   -0.6166308554   -0.1746577005
      5  C        -0.0667561924   -0.7310737480   -1.7320572647
      6  O         0.1017025809   -1.8724293842    0.3547525222
      7  C        -1.2475271662    0.1152954790    0.3218939298
      8  O        -2.0869485372   -0.4285819867    1.0472116569
      9  C        -1.5099318013    1.5440133363   -0.1028877411
     10  H        -1.0039619543    1.7623878217   -1.0440599702
     11  H        -0.9484847886    2.1795338977    0.5893001493
     12  H        -2.5941751582    1.7402914661   -0.1783927073
     13  H        -1.0710668194   -1.0571473003   -2.0663174704
     14  H         0.5822341690   -1.5998059343   -1.9362452628
     15  H         0.2648680392    0.1700908765   -2.2788481132
   Point Group: c1    Number of degrees of freedom:    39


   Energy is   -494.985849926

 Hessian Updated using BFGS Update

 36 Hessian modes will be used to form the next step
  Hessian Eigenvalues:
     0.002005    0.002402    0.005990    0.007320    0.011521    0.015676
     0.047479    0.049655    0.069845    0.074015    0.074555    0.085513
     0.096268    0.157140    0.160152    0.163960    0.194783    0.203068
     0.232060    0.248618    0.250000    0.251419    0.276979    0.285099
     0.289901    0.300306    0.306408    0.310384    0.321674    0.358910
     0.361956    0.373312    0.439857    0.642327    0.777277    0.821089

 Minimum Search - Taking Simple RFO Step
 Searching for Lamda that Minimizes Along All modes
 Value Taken    Lamda =  -0.01800406
 Calculated Step too Large.  Step scaled by  0.477967
 Step Taken.  Stepsize is  0.300000

                             Maximum     Tolerance    Cnvgd?
         Gradient           0.020975      0.000300      NO
         Displacement       0.139317      0.001200      NO
         Energy change     -0.015919      0.000001      NO


 New Cartesian Coordinates Obtained by Inverse Iteration

 Displacement from previous Coordinates is:  0.331347
 ----------------------------------------------------------------
             Standard Nuclear Orientation (Angstroms)
    I     Atom           X                Y                Z
 ----------------------------------------------------------------
    1      C       1.3450060771     0.2697112400     0.1719466152
    2      O       1.3127041759     1.4694737578    -0.2666647529
    3      O       2.2352147522    -0.2079402474     0.9106442238
    4      C       0.0430640754    -0.6690078943    -0.1548834500
    5      C      -0.0703668527    -0.7337681286    -1.7286241029
    6      O       0.0995900540    -1.9067894958     0.3577906877
    7      C      -1.2312113512     0.1005251977     0.3249217771
    8      O      -2.0771119754    -0.4082752853     1.0594527499
    9      C      -1.4787427831     1.5390989106    -0.1269031771
   10      H      -0.9924453904     1.7436667119    -1.0838141623
   11      H      -0.9429793334     2.1997440312     0.5635262403
   12      H      -2.5599855098     1.7396454273    -0.1704101852
   13      H      -1.0862345303    -1.0358978857    -2.0431605911
   14      H       0.5843513420    -1.5705642012    -1.9981507062
   15      H       0.2400066845     0.1879199937    -2.2469446995
 ----------------------------------------------------------------
 Molecular Point Group                 C1    NOp =  1
 Largest Abelian Subgroup              C1    NOp =  1
 Nuclear Repulsion Energy =   452.0935958885 hartrees
 There are       35 alpha and       35 beta electrons
 Applying Cartesian multipole field
    Component          Value
    ---------          -----
     (2,0,0)        1.00000E-11
     (0,2,0)        2.00000E-11
     (0,0,2)       -3.00000E-11
 Nucleus-field energy     =     0.0000000052 hartrees
 Requested basis set is 6-31+G(d)
 There are 57 shells and 183 basis functions
 A cutoff of  1.0D-11 yielded   1555 shell pairs
 There are     16655 function pairs
 Smallest overlap matrix eigenvalue = 2.82E-05
 Guess MOs from SCF MO coefficient file
 Reading MOs from coefficient file
 Reading MOs from coefficient file
 A restricted hybrid HF-DFT SCF calculation will be
 performed using Pulay DIIS extrapolation
 Exchange:     0.2000 Hartree-Fock + 0.0800 Slater + 0.7200 B88
 Correlation:  0.1900 VWN1RPA + 0.8100 LYP
 Using SG-1 standard quadrature grid
 SCF converges when DIIS error is below 1.0E-08
Geometry optimization detected.  Setting ReadMinima to 0
Setting SaveMinima to 0
 CPU 0.00 s  wall 0.00 s
 CPU 7.05 s  wall 7.05 s
 ---------------------------------------
  Cycle       Energy         DIIS Error
 ---------------------------------------
    1    -494.9928803348      2.39E-03
 CPU 0.00 s  wall 0.00 s
 CPU 5.40 s  wall 5.40 s
    2    -494.9864834676      9.88E-04
 CPU 0.00 s  wall 0.00 s
 CPU 5.39 s  wall 5.39 s
    3    -494.9773354907      1.96E-03
 CPU 0.00 s  wall 0.00 s
 CPU 5.35 s  wall 5.36 s
    4    -494.9905547548      1.76E-04
 CPU 0.00 s  wall 0.00 s
 CPU 5.20 s  wall 5.21 s
    5    -494.9906500320      1.19E-04
 CPU 0.00 s  wall 0.00 s
 CPU 5.11 s  wall 5.11 s
    6    -494.9906947064      2.96E-05
 CPU 0.00 s  wall 0.00 s
 CPU 5.05 s  wall 5.05 s
    7    -494.9906974347      8.58E-06
 CPU 0.00 s  wall 0.00 s
 CPU 5.00 s  wall 5.00 s
    8    -494.9906977491      1.93E-06
 CPU 0.00 s  wall 0.00 s
 CPU 4.93 s  wall 4.93 s
    9    -494.9906977624      1.28E-06
 CPU 0.00 s  wall 0.00 s
 CPU 4.78 s  wall 4.78 s
   10    -494.9906977707      3.02E-07
 CPU 0.00 s  wall 0.00 s
 CPU 4.74 s  wall 4.74 s
   11    -494.9906977700      1.54E-07
 CPU 0.00 s  wall 0.00 s
 CPU 4.61 s  wall 4.61 s
   12    -494.9906977702      4.76E-08
 CPU 0.00 s  wall 0.00 s
 CPU 4.33 s  wall 4.33 s
   13    -494.9906977696      1.60E-08
 CPU 0.00 s  wall 0.00 s
 CPU 4.18 s  wall 4.18 s
   14    -494.9906977695      3.63E-09 Convergence criterion met
 ---------------------------------------
 SCF time:  CPU 166.73 s  wall 166.23 s
 SCF   energy in the final basis set = -494.9906977695
 Total energy in the final basis set = -494.9906977695
 
 --------------------------------------------------------------
 
                    Orbital Energies (a.u.)
 --------------------------------------------------------------
 
 Alpha MOs
 -- Occupied --
-18.851 -18.774 -18.774 -18.719  -9.974  -9.946  -9.914  -9.911
 -9.888  -0.741  -0.697  -0.608  -0.592  -0.463  -0.414  -0.318
 -0.228  -0.185  -0.165  -0.144  -0.136  -0.128  -0.111  -0.091
 -0.084  -0.074  -0.059  -0.045  -0.019   0.044   0.064   0.071
  0.095   0.132   0.144
 -- Virtual --
  0.220   0.234   0.260   0.265   0.282   0.289   0.298   0.300
  0.310   0.317   0.327   0.338   0.342   0.351   0.359   0.373
  0.382   0.387   0.401   0.404   0.430   0.467   0.479   0.490
  0.494   0.504   0.522   0.524   0.536   0.546   0.560   0.563
  0.569   0.582   0.586   0.590   0.599   0.607   0.621   0.633
  0.634   0.647   0.653   0.669   0.670   0.683   0.698   0.731
  0.749   0.798   0.809   0.898   0.923   0.939   0.963   0.996
  1.027   1.046   1.068   1.124   1.132   1.145   1.160   1.165
  1.187   1.208   1.227   1.260   1.272   1.317   1.346   1.383
  1.414   1.443   1.483   1.514   1.530   1.567   1.592   1.608
  1.630   1.647   1.671   1.680   1.690   1.709   1.725   1.739
  1.775   1.798   1.818   1.844   1.851   1.915   1.936   1.957
  2.014   2.023   2.065   2.077   2.117   2.120   2.177   2.186
  2.205   2.218   2.233   2.275   2.281   2.295   2.312   2.330
  2.368   2.380   2.443   2.488   2.504   2.545   2.555   2.611
  2.617   2.653   2.681   2.722   2.765   2.772   2.832   2.918
  2.947   3.007   3.045   3.066   3.189   3.293   3.341   3.404
  3.474   3.493   3.584   4.441   4.555   4.600   4.614   4.720
  4.774   4.881   4.992   5.117
 --------------------------------------------------------------
 
          Ground-State Mulliken Net Atomic Charges

     Atom                 Charge (a.u.)
  ----------------------------------------
      1 C                     0.312365
      2 O                    -0.618566
      3 O                    -0.579379
      4 C                    -0.295416
      5 C                    -0.529904
      6 O                    -0.640994
      7 C                     0.306733
      8 O                    -0.465916
      9 C                    -0.641347
     10 H                     0.228142
     11 H                     0.229849
     12 H                     0.148350
     13 H                     0.157929
     14 H                     0.205433
     15 H                     0.182722
  ----------------------------------------
  Sum of atomic charges =    -2.000000

 -----------------------------------------------------------------
                    Cartesian Multipole Moments
 -----------------------------------------------------------------
    Charge (ESU x 10^10)
                -9.6064
    Dipole Moment (Debye)
         X      -4.5378      Y       4.0925      Z      -3.1156
       Tot       6.8591
    Quadrupole Moments (Debye-Ang)
        XX     -92.7665     XY      -5.3408     YY     -87.4695
        XZ      -1.0544     YZ       5.5785     ZZ     -72.2179
    Octopole Moments (Debye-Ang^2)
       XXX     -13.9793    XXY      -6.2737    XYY      -5.1596
       YYY      21.7119    XXZ     -23.2958    XYZ       1.5314
       YYZ       2.6114    XZZ       3.3669    YZZ      10.0007
       ZZZ      24.7543
    Hexadecapole Moments (Debye-Ang^3)
      XXXX    -936.0821   XXXY       6.3213   XXYY    -258.8722
      XYYY       9.3403   YYYY    -655.4864   XXXZ      -9.4145
      XXYZ      11.4477   XYYZ      -1.4482   YYYZ      13.3470
      XXZZ    -225.3195   XYZZ       1.1684   YYZZ    -164.7068
      XZZZ      -8.8087   YZZZ     -12.1130   ZZZZ    -450.6292
 -----------------------------------------------------------------
 Calculating analytic gradient of the SCF energy
 CPU 0.00 s  wall 0.00 s
 CPU 8.36 s  wall 8.36 s
 Gradient of SCF Energy
            1           2           3           4           5           6
    1   0.0025291  -0.0013951  -0.0031372  -0.0044246   0.0007967   0.0026004
    2  -0.0101641   0.0000661   0.0043052   0.0214203   0.0018847  -0.0063207
    3  -0.0139733   0.0080669   0.0034313  -0.0132315   0.0060629   0.0058982
            7           8           9          10          11          12
    1   0.0016040   0.0006873  -0.0058095   0.0027016   0.0050145  -0.0002500
    2  -0.0011591  -0.0001561  -0.0019359  -0.0000783  -0.0021908  -0.0015144
    3  -0.0012677  -0.0000142   0.0079078   0.0016985  -0.0027418  -0.0036794
           13          14          15
    1   0.0001957  -0.0026843   0.0015714
    2  -0.0021784  -0.0026439   0.0006654
    3  -0.0004266   0.0018391   0.0004299
 Max gradient component =       2.142E-02
 RMS gradient           =       5.544E-03
 Gradient time:  CPU 66.59 s  wall 66.59 s
 Geometry Optimization Parameters
   NAtoms,    NIC,     NZ,  NCons,   NDum,   NFix, NCnnct, MaxDiis
       15      95       0       0       0       0       0       0

 Cartesian Hessian Update
 Hessian Updated using BFGS Update


** GEOMETRY OPTIMIZATION IN DELOCALIZED INTERNAL COORDINATES **
   Searching for a Minimum

   Optimization Cycle:   4

                       Coordinates (Angstroms)
     ATOM                X               Y               Z
      1  C         1.3450060771    0.2697112400    0.1719466152
      2  O         1.3127041759    1.4694737578   -0.2666647529
      3  O         2.2352147522   -0.2079402474    0.9106442238
      4  C         0.0430640754   -0.6690078943   -0.1548834500
      5  C        -0.0703668527   -0.7337681286   -1.7286241029
      6  O         0.0995900540   -1.9067894958    0.3577906877
      7  C        -1.2312113512    0.1005251977    0.3249217771
      8  O        -2.0771119754   -0.4082752853    1.0594527499
      9  C        -1.4787427831    1.5390989106   -0.1269031771
     10  H        -0.9924453904    1.7436667119   -1.0838141623
     11  H        -0.9429793334    2.1997440312    0.5635262403
     12  H        -2.5599855098    1.7396454273   -0.1704101852
     13  H        -1.0862345303   -1.0358978857   -2.0431605911
     14  H         0.5843513420   -1.5705642012   -1.9981507062
     15  H         0.2400066845    0.1879199937   -2.2469446995
   Point Group: c1    Number of degrees of freedom:    39


   Energy is   -494.990697770

 Hessian Updated using BFGS Update

 37 Hessian modes will be used to form the next step
  Hessian Eigenvalues:
     0.002023    0.005096    0.007016    0.007258    0.011768    0.015670
     0.047391    0.067042    0.069827    0.072484    0.074812    0.081980
     0.095578    0.152238    0.160146    0.161174    0.161974    0.192662
     0.203243    0.220035    0.246517    0.250001    0.250630    0.276328
     0.288330    0.290451    0.303944    0.306175    0.318371    0.321684
     0.358619    0.361104    0.374704    0.439408    0.654112    0.780199
     0.820082

 Minimum Search - Taking Simple RFO Step
 Searching for Lamda that Minimizes Along All modes
 Value Taken    Lamda =  -0.01647323
 Calculated Step too Large.  Step scaled by  0.364843
 Step Taken.  Stepsize is  0.300000

                             Maximum     Tolerance    Cnvgd?
         Gradient           0.009362      0.000300      NO
         Displacement       0.138753      0.001200      NO
         Energy change     -0.004848      0.000001      NO


 New Cartesian Coordinates Obtained by Inverse Iteration

 Displacement from previous Coordinates is:  0.362581
 ----------------------------------------------------------------
             Standard Nuclear Orientation (Angstroms)
    I     Atom           X                Y                Z
 ----------------------------------------------------------------
    1      C       1.3349265280     0.2650588996     0.2060557307
    2      O       1.2973889774     1.4235254224    -0.3437800309
    3      O       2.2721792619    -0.2129549656     0.8717431681
    4      C       0.0433319602    -0.7149857383    -0.1105546193
    5      C      -0.0606600565    -0.7176310585    -1.7037637614
    6      O       0.0864522155    -1.9404061702     0.3720290315
    7      C      -1.2375641657     0.0853715818     0.3363695923
    8      O      -2.1044163129    -0.3951070596     1.0610310658
    9      C      -1.4666702784     1.5324383339    -0.1485258077
   10      H      -0.9869744184     1.7267083453    -1.1131073228
   11      H      -0.9734143478     2.2196395163     0.5500005054
   12      H      -2.5462829080     1.7335285422    -0.1787101352
   13      H      -1.0802214271    -0.9999336643    -2.0204133464
   14      H       0.6097690203    -1.5168442993    -2.0307418242
   15      H       0.2330153863     0.2291344463    -2.1789057789
 ----------------------------------------------------------------
 Molecular Point Group                 C1    NOp =  1
 Largest Abelian Subgroup              C1    NOp =  1
 Nuclear Repulsion Energy =   451.7914483117 hartrees
 There are       35 alpha and       35 beta electrons
 Applying Cartesian multipole field
    Component          Value
    ---------          -----
     (2,0,0)        1.00000E-11
     (0,2,0)        2.00000E-11
     (0,0,2)       -3.00000E-11
 Nucleus-field energy     =     0.0000000053 hartrees
 Requested basis set is 6-31+G(d)
 There are 57 shells and 183 basis functions
 A cutoff of  1.0D-11 yielded   1554 shell pairs
 There are     16654 function pairs
 Smallest overlap matrix eigenvalue = 2.75E-05
 Guess MOs from SCF MO coefficient file
 Reading MOs from coefficient file
 Reading MOs from coefficient file
 A restricted hybrid HF-DFT SCF calculation will be
 performed using Pulay DIIS extrapolation
 Exchange:     0.2000 Hartree-Fock + 0.0800 Slater + 0.7200 B88
 Correlation:  0.1900 VWN1RPA + 0.8100 LYP
 Using SG-1 standard quadrature grid
 SCF converges when DIIS error is below 1.0E-08
Geometry optimization detected.  Setting ReadMinima to 0
Setting SaveMinima to 0
 CPU 0.00 s  wall 0.00 s
 CPU 6.95 s  wall 6.95 s
 ---------------------------------------
  Cycle       Energy         DIIS Error
 ---------------------------------------
    1    -494.9913818392      2.51E-03
 CPU 0.00 s  wall 0.00 s
 CPU 5.26 s  wall 5.26 s
    2    -494.9894684477      9.29E-04
 CPU 0.00 s  wall 0.00 s
 CPU 5.25 s  wall 5.25 s
    3    -494.9812159283      1.85E-03
 CPU 0.00 s  wall 0.00 s
 CPU 5.21 s  wall 5.21 s
    4    -494.9930162455      1.55E-04
 CPU 0.00 s  wall 0.00 s
 CPU 5.17 s  wall 5.17 s
    5    -494.9930771274      1.11E-04
 CPU 0.00 s  wall 0.00 s
 CPU 5.10 s  wall 5.10 s
    6    -494.9931163922      2.66E-05
 CPU 0.00 s  wall 0.00 s
 CPU 5.01 s  wall 5.01 s
    7    -494.9931186476      8.04E-06
 CPU 0.00 s  wall 0.00 s
 CPU 4.95 s  wall 4.95 s
    8    -494.9931189051      2.17E-06
 CPU 0.00 s  wall 0.00 s
 CPU 4.91 s  wall 4.91 s
    9    -494.9931189216      1.39E-06
 CPU 0.00 s  wall 0.00 s
 CPU 4.77 s  wall 4.77 s
   10    -494.9931189282      3.53E-07
 CPU 0.00 s  wall 0.00 s
 CPU 4.73 s  wall 4.73 s
   11    -494.9931189277      1.48E-07
 CPU 0.00 s  wall 0.00 s
 CPU 4.60 s  wall 4.60 s
   12    -494.9931189282      3.84E-08
 CPU 0.00 s  wall 0.00 s
 CPU 4.38 s  wall 4.38 s
   13    -494.9931189280      1.81E-08
 CPU 0.00 s  wall 0.00 s
 CPU 4.16 s  wall 4.16 s
   14    -494.9931189276      3.22E-09 Convergence criterion met
 ---------------------------------------
 SCF time:  CPU 165.01 s  wall 164.43 s
 SCF   energy in the final basis set = -494.9931189276
 Total energy in the final basis set = -494.9931189276
 
 --------------------------------------------------------------
 
                    Orbital Energies (a.u.)
 --------------------------------------------------------------
 
 Alpha MOs
 -- Occupied --
-18.851 -18.778 -18.774 -18.724  -9.972  -9.947  -9.915  -9.910
 -9.885  -0.742  -0.698  -0.611  -0.603  -0.458  -0.411  -0.315
 -0.225  -0.183  -0.159  -0.143  -0.134  -0.128  -0.108  -0.089
 -0.084  -0.075  -0.060  -0.045  -0.026   0.043   0.060   0.070
  0.092   0.128   0.142
 -- Virtual --
  0.221   0.236   0.261   0.266   0.283   0.290   0.299   0.300
  0.310   0.316   0.328   0.339   0.343   0.351   0.357   0.375
  0.380   0.387   0.399   0.407   0.426   0.469   0.482   0.487
  0.498   0.507   0.519   0.528   0.536   0.545   0.559   0.564
  0.569   0.581   0.583   0.590   0.595   0.608   0.615   0.632
  0.635   0.642   0.654   0.665   0.670   0.681   0.701   0.729
  0.740   0.803   0.809   0.905   0.922   0.940   0.966   1.003
  1.023   1.051   1.072   1.119   1.131   1.147   1.162   1.166
  1.195   1.212   1.231   1.260   1.275   1.319   1.356   1.389
  1.421   1.441   1.483   1.508   1.533   1.566   1.595   1.607
  1.632   1.650   1.668   1.684   1.696   1.708   1.724   1.730
  1.773   1.794   1.820   1.828   1.853   1.911   1.928   1.953
  2.007   2.017   2.063   2.071   2.110   2.118   2.171   2.181
  2.198   2.219   2.230   2.270   2.281   2.286   2.315   2.326
  2.366   2.397   2.441   2.487   2.492   2.549   2.569   2.612
  2.620   2.661   2.689   2.724   2.755   2.777   2.838   2.910
  2.948   3.004   3.051   3.070   3.188   3.299   3.342   3.416
  3.479   3.506   3.587   4.447   4.559   4.600   4.617   4.724
  4.775   4.911   4.973   5.123
 --------------------------------------------------------------
 
          Ground-State Mulliken Net Atomic Charges

     Atom                 Charge (a.u.)
  ----------------------------------------
      1 C                     0.319020
      2 O                    -0.611440
      3 O                    -0.579297
      4 C                    -0.325297
      5 C                    -0.510809
      6 O                    -0.640519
      7 C                     0.327149
      8 O                    -0.472655
      9 C                    -0.648144
     10 H                     0.226217
     11 H                     0.220551
     12 H                     0.148328
     13 H                     0.157096
     14 H                     0.195950
     15 H                     0.193851
  ----------------------------------------
  Sum of atomic charges =    -2.000000

 -----------------------------------------------------------------
                    Cartesian Multipole Moments
 -----------------------------------------------------------------
    Charge (ESU x 10^10)
                -9.6064
    Dipole Moment (Debye)
         X      -4.3873      Y       4.0953      Z      -2.8307
       Tot       6.6357
    Quadrupole Moments (Debye-Ang)
        XX     -93.6034     XY      -5.0623     YY     -87.2649
        XZ      -0.4052     YZ       5.9953     ZZ     -71.9869
    Octopole Moments (Debye-Ang^2)
       XXX     -13.5405    XXY      -5.7998    XYY      -4.1254
       YYY      24.6869    XXZ     -22.7056    XYZ       1.9134
       YYZ       2.7320    XZZ       3.8873    YZZ      10.4960
       ZZZ      24.2980
    Hexadecapole Moments (Debye-Ang^3)
      XXXX    -954.2799   XXXY       9.1738   XXYY    -258.7337
      XYYY      12.5863   YYYY    -654.6155   XXXZ      -4.1294
      XXYZ      14.6789   XYYZ       0.0396   YYYZ      20.2041
      XXZZ    -225.6620   XYZZ       1.6865   YYZZ    -163.9726
      XZZZ      -4.6663   YZZZ      -6.4031   ZZZZ    -442.4915
 -----------------------------------------------------------------
 Calculating analytic gradient of the SCF energy
 CPU 0.00 s  wall 0.00 s
 CPU 8.33 s  wall 8.33 s
 Gradient of SCF Energy
            1           2           3           4           5           6
    1   0.0021035  -0.0029359  -0.0054455   0.0017213   0.0018788   0.0005389
    2  -0.0056784   0.0027372   0.0021047  -0.0010314   0.0001850   0.0029108
    3   0.0126057  -0.0049657  -0.0072559  -0.0042448   0.0041862  -0.0002713
            7           8           9          10          11          12
    1  -0.0027752   0.0035185  -0.0039093   0.0027864   0.0016092   0.0022546
    2  -0.0054115   0.0024906   0.0000919  -0.0000967   0.0001558  -0.0001803
    3   0.0024945  -0.0034017   0.0036687  -0.0014471  -0.0007493  -0.0009280
           13          14          15
    1   0.0000657  -0.0025438   0.0011328
    2   0.0005337   0.0009584   0.0002302
    3   0.0004137   0.0004853  -0.0005902
 Max gradient component =       1.261E-02
 RMS gradient           =       3.353E-03
 Gradient time:  CPU 66.38 s  wall 66.41 s
 Geometry Optimization Parameters
   NAtoms,    NIC,     NZ,  NCons,   NDum,   NFix, NCnnct, MaxDiis
       15      95       0       0       0       0       0       0

 Cartesian Hessian Update
 Hessian Updated using BFGS Update


** GEOMETRY OPTIMIZATION IN DELOCALIZED INTERNAL COORDINATES **
   Searching for a Minimum

   Optimization Cycle:   5

                       Coordinates (Angstroms)
     ATOM                X               Y               Z
      1  C         1.3349265280    0.2650588996    0.2060557307
      2  O         1.2973889774    1.4235254224   -0.3437800309
      3  O         2.2721792619   -0.2129549656    0.8717431681
      4  C         0.0433319602   -0.7149857383   -0.1105546193
      5  C        -0.0606600565   -0.7176310585   -1.7037637614
      6  O         0.0864522155   -1.9404061702    0.3720290315
      7  C        -1.2375641657    0.0853715818    0.3363695923
      8  O        -2.1044163129   -0.3951070596    1.0610310658
      9  C        -1.4666702784    1.5324383339   -0.1485258077
     10  H        -0.9869744184    1.7267083453   -1.1131073228
     11  H        -0.9734143478    2.2196395163    0.5500005054
     12  H        -2.5462829080    1.7335285422   -0.1787101352
     13  H        -1.0802214271   -0.9999336643   -2.0204133464
     14  H         0.6097690203   -1.5168442993   -2.0307418242
     15  H         0.2330153863    0.2291344463   -2.1789057789
   Point Group: c1    Number of degrees of freedom:    39


   Energy is   -494.993118928

 Hessian Updated using BFGS Update

 38 Hessian modes will be used to form the next step
  Hessian Eigenvalues:
     0.002015    0.005996    0.007129    0.011212    0.015647    0.046919
     0.062069    0.069187    0.071798    0.072525    0.075271    0.080441
     0.096234    0.149087    0.160126    0.160223    0.160847    0.161958
     0.191296    0.203312    0.212442    0.247008    0.250437    0.250564
     0.275912    0.288127    0.292782    0.304733    0.305738    0.321589
     0.324269    0.360919    0.366087    0.381296    0.439866    0.656616
     0.783405    0.825174

 Minimum Search - Taking Simple RFO Step
 Searching for Lamda that Minimizes Along All modes
 Value Taken    Lamda =  -0.00317145
 Calculated Step too Large.  Step scaled by  0.728935
 Step Taken.  Stepsize is  0.300000

                             Maximum     Tolerance    Cnvgd?
         Gradient           0.012518      0.000300      NO
         Displacement       0.138182      0.001200      NO
         Energy change     -0.002421      0.000001      NO


 New Cartesian Coordinates Obtained by Inverse Iteration

 Displacement from previous Coordinates is:  0.519663
 ----------------------------------------------------------------
             Standard Nuclear Orientation (Angstroms)
    I     Atom           X                Y                Z
 ----------------------------------------------------------------
    1      C       1.3909444663     0.2235381652     0.2157243639
    2      O       1.4219002391     1.3742966506    -0.3496010260
    3      O       2.2674213762    -0.2692428578     0.9575404606
    4      C       0.0542793695    -0.7115034355    -0.1100086553
    5      C      -0.0567692874    -0.7012495608    -1.7131520780
    6      O       0.0655817012    -1.9446971649     0.3486328190
    7      C      -1.2183133026     0.1081052970     0.3569553996
    8      O      -2.0622155002    -0.3647856130     1.1159716200
    9      C      -1.5071411535     1.5352229180    -0.1703783688
   10      H      -1.0946346644     1.7189862898    -1.1662782273
   11      H      -1.0176900157     2.2647344227     0.4879750433
   12      H      -2.5941502644     1.7007159269    -0.1409428651
   13      H      -1.0730764117    -0.9963679389    -2.0266022049
   14      H       0.6342685580    -1.4772474551    -2.0594286638
   15      H       0.2104543243     0.2570364879    -2.1776811503
 ----------------------------------------------------------------
 Molecular Point Group                 C1    NOp =  1
 Largest Abelian Subgroup              C1    NOp =  1
 Nuclear Repulsion Energy =   449.0085876257 hartrees
 There are       35 alpha and       35 beta electrons
 Applying Cartesian multipole field
    Component          Value
    ---------          -----
     (2,0,0)        1.00000E-11
     (0,2,0)        2.00000E-11
     (0,0,2)       -3.00000E-11
 Nucleus-field energy     =     0.0000000050 hartrees
 Requested basis set is 6-31+G(d)
 There are 57 shells and 183 basis functions
 A cutoff of  1.0D-11 yielded   1554 shell pairs
 There are     16649 function pairs
 Smallest overlap matrix eigenvalue = 2.84E-05
 Guess MOs from SCF MO coefficient file
 Reading MOs from coefficient file
 Reading MOs from coefficient file
 A restricted hybrid HF-DFT SCF calculation will be
 performed using Pulay DIIS extrapolation
 Exchange:     0.2000 Hartree-Fock + 0.0800 Slater + 0.7200 B88
 Correlation:  0.1900 VWN1RPA + 0.8100 LYP
 Using SG-1 standard quadrature grid
 SCF converges when DIIS error is below 1.0E-08
Geometry optimization detected.  Setting ReadMinima to 0
Setting SaveMinima to 0
 CPU 0.00 s  wall 0.00 s
 CPU 6.87 s  wall 6.86 s
 ---------------------------------------
  Cycle       Energy         DIIS Error
 ---------------------------------------
    1    -494.9845921901      2.57E-03
 CPU 0.00 s  wall 0.00 s
 CPU 5.21 s  wall 5.21 s
    2    -494.9934092426      3.57E-04
 CPU 0.00 s  wall 0.00 s
 CPU 5.17 s  wall 5.17 s
    3    -494.9918343685      7.97E-04
 CPU 0.00 s  wall 0.00 s
 CPU 5.18 s  wall 5.18 s
    4    -494.9939423915      8.32E-05
 CPU 0.00 s  wall 0.00 s
 CPU 5.11 s  wall 5.11 s
    5    -494.9939627478      3.52E-05
 CPU 0.00 s  wall 0.00 s
 CPU 5.02 s  wall 5.02 s
    6    -494.9939668515      1.51E-05
 CPU 0.00 s  wall 0.00 s
 CPU 4.99 s  wall 4.99 s
    7    -494.9939674425      7.73E-06
 CPU 0.00 s  wall 0.00 s
 CPU 4.91 s  wall 4.91 s
    8    -494.9939676524      1.42E-06
 CPU 0.00 s  wall 0.00 s
 CPU 4.82 s  wall 4.82 s
    9    -494.9939676598      6.00E-07
 CPU 0.00 s  wall 0.00 s
 CPU 4.71 s  wall 4.71 s
   10    -494.9939676610      2.03E-07
 CPU 0.00 s  wall 0.00 s
 CPU 4.65 s  wall 4.65 s
   11    -494.9939676607      9.41E-08
 CPU 0.00 s  wall 0.00 s
 CPU 4.49 s  wall 4.49 s
   12    -494.9939676606      3.82E-08
 CPU 0.00 s  wall 0.00 s
 CPU 4.25 s  wall 4.25 s
   13    -494.9939676611      7.95E-09 Convergence criterion met
 ---------------------------------------
 SCF time:  CPU 152.99 s  wall 152.46 s
 SCF   energy in the final basis set = -494.9939676611
 Total energy in the final basis set = -494.9939676611
 
 --------------------------------------------------------------
 
                    Orbital Energies (a.u.)
 --------------------------------------------------------------
 
 Alpha MOs
 -- Occupied --
-18.853 -18.778 -18.776 -18.725  -9.975  -9.948  -9.918  -9.916
 -9.885  -0.743  -0.696  -0.610  -0.604  -0.460  -0.410  -0.315
 -0.226  -0.185  -0.160  -0.145  -0.137  -0.128  -0.110  -0.089
 -0.084  -0.076  -0.061  -0.046  -0.027   0.041   0.060   0.069
  0.091   0.128   0.142
 -- Virtual --
  0.218   0.235   0.260   0.265   0.282   0.289   0.297   0.300
  0.309   0.316   0.327   0.338   0.343   0.350   0.358   0.374
  0.380   0.387   0.399   0.404   0.427   0.469   0.475   0.486
  0.497   0.506   0.515   0.523   0.534   0.542   0.558   0.563
  0.567   0.579   0.582   0.590   0.594   0.606   0.613   0.629
  0.631   0.641   0.653   0.663   0.668   0.681   0.702   0.728
  0.738   0.796   0.805   0.900   0.920   0.936   0.966   1.001
  1.021   1.043   1.067   1.119   1.129   1.140   1.158   1.170
  1.191   1.217   1.233   1.253   1.272   1.323   1.354   1.384
  1.428   1.441   1.478   1.500   1.536   1.564   1.592   1.609
  1.624   1.649   1.666   1.683   1.692   1.699   1.722   1.729
  1.767   1.778   1.810   1.829   1.858   1.894   1.918   1.945
  2.005   2.012   2.055   2.067   2.097   2.114   2.166   2.180
  2.188   2.212   2.224   2.259   2.265   2.284   2.304   2.318
  2.362   2.397   2.441   2.489   2.489   2.538   2.552   2.609
  2.620   2.649   2.685   2.705   2.759   2.769   2.836   2.908
  2.934   2.994   3.047   3.057   3.173   3.289   3.335   3.402
  3.471   3.501   3.579   4.436   4.546   4.592   4.610   4.711
  4.770   4.894   4.962   5.102
 --------------------------------------------------------------
 
          Ground-State Mulliken Net Atomic Charges

     Atom                 Charge (a.u.)
  ----------------------------------------
      1 C                     0.299379
      2 O                    -0.606669
      3 O                    -0.577204
      4 C                    -0.298460
      5 C                    -0.523733
      6 O                    -0.634973
      7 C                     0.332644
      8 O                    -0.465287
      9 C                    -0.660725
     10 H                     0.216392
     11 H                     0.218644
     12 H                     0.155170
     13 H                     0.158014
     14 H                     0.193096
     15 H                     0.193712
  ----------------------------------------
  Sum of atomic charges =    -2.000000

 -----------------------------------------------------------------
                    Cartesian Multipole Moments
 -----------------------------------------------------------------
    Charge (ESU x 10^10)
                -9.6064
    Dipole Moment (Debye)
         X      -4.7472      Y       4.2376      Z      -2.9637
       Tot       7.0198
    Quadrupole Moments (Debye-Ang)
        XX     -93.8066     XY      -5.1205     YY     -86.7009
        XZ      -0.7260     YZ       6.0515     ZZ     -73.0439
    Octopole Moments (Debye-Ang^2)
       XXX     -20.3071    XXY      -6.5299    XYY      -5.2833
       YYY      26.9176    XXZ     -23.9785    XYZ       2.6052
       YYZ       2.5741    XZZ       2.1661    YZZ      10.9019
       ZZZ      22.1035
    Hexadecapole Moments (Debye-Ang^3)
      XXXX    -970.1968   XXXY      13.9128   XXYY    -261.6158
      XYYY      17.7447   YYYY    -644.4368   XXXZ     -10.4736
      XXYZ      17.0221   XYYZ      -1.5335   YYYZ      21.3509
      XXZZ    -234.9946   XYZZ       3.6175   YYZZ    -165.0839
      XZZZ      -7.9418   YZZZ      -4.5586   ZZZZ    -460.8202
 -----------------------------------------------------------------
 Calculating analytic gradient of the SCF energy
 CPU 0.00 s  wall 0.00 s
 CPU 8.28 s  wall 8.28 s
 Gradient of SCF Energy
            1           2           3           4           5           6
    1   0.0041786   0.0001189  -0.0017754  -0.0001417   0.0013695   0.0002888
    2  -0.0064602   0.0044012   0.0006555  -0.0000246  -0.0016190   0.0024511
    3   0.0039832  -0.0030464  -0.0016295   0.0017294   0.0010785  -0.0016380
            7           8           9          10          11          12
    1  -0.0008570   0.0003797  -0.0043046   0.0010248  -0.0003202   0.0008098
    2  -0.0024594   0.0005312  -0.0000118   0.0007449   0.0008136   0.0000548
    3   0.0033498  -0.0022098  -0.0002298  -0.0006354  -0.0004481   0.0006388
           13          14          15
    1   0.0000920  -0.0011097   0.0002466
    2   0.0012790   0.0004124  -0.0007688
    3  -0.0000719  -0.0006053  -0.0002656
 Max gradient component =       6.460E-03
 RMS gradient           =       1.986E-03
 Gradient time:  CPU 65.67 s  wall 65.72 s
 Geometry Optimization Parameters
   NAtoms,    NIC,     NZ,  NCons,   NDum,   NFix, NCnnct, MaxDiis
       15      95       0       0       0       0       0       0

 Cartesian Hessian Update
 Hessian Updated using BFGS Update


** GEOMETRY OPTIMIZATION IN DELOCALIZED INTERNAL COORDINATES **
   Searching for a Minimum

   Optimization Cycle:   6

                       Coordinates (Angstroms)
     ATOM                X               Y               Z
      1  C         1.3909444663    0.2235381652    0.2157243639
      2  O         1.4219002391    1.3742966506   -0.3496010260
      3  O         2.2674213762   -0.2692428578    0.9575404606
      4  C         0.0542793695   -0.7115034355   -0.1100086553
      5  C        -0.0567692874   -0.7012495608   -1.7131520780
      6  O         0.0655817012   -1.9446971649    0.3486328190
      7  C        -1.2183133026    0.1081052970    0.3569553996
      8  O        -2.0622155002   -0.3647856130    1.1159716200
      9  C        -1.5071411535    1.5352229180   -0.1703783688
     10  H        -1.0946346644    1.7189862898   -1.1662782273
     11  H        -1.0176900157    2.2647344227    0.4879750433
     12  H        -2.5941502644    1.7007159269   -0.1409428651
     13  H        -1.0730764117   -0.9963679389   -2.0266022049
     14  H         0.6342685580   -1.4772474551   -2.0594286638
     15  H         0.2104543243    0.2570364879   -2.1776811503
   Point Group: c1    Number of degrees of freedom:    39


   Energy is   -494.993967661

 Hessian Updated using BFGS Update

 39 Hessian modes will be used to form the next step
  Hessian Eigenvalues:
     0.002247    0.005344    0.007709    0.012924    0.015634    0.047993
     0.066246    0.069520    0.071780    0.074812    0.078855    0.083651
     0.097378    0.157038    0.159672    0.160001    0.160153    0.161445
     0.162579    0.197470    0.203394    0.220406    0.247348    0.250072
     0.251930    0.276089    0.287549    0.296666    0.304471    0.309637
     0.321591    0.352807    0.360912    0.368465    0.393599    0.440431
     0.641473    0.775687    0.820495

 Minimum Search - Taking Simple RFO Step
 Searching for Lamda that Minimizes Along All modes
 Value Taken    Lamda =  -0.00101102
 Step Taken.  Stepsize is  0.266915

                             Maximum     Tolerance    Cnvgd?
         Gradient           0.007190      0.000300      NO
         Displacement       0.115731      0.001200      NO
         Energy change     -0.000849      0.000001      NO


 New Cartesian Coordinates Obtained by Inverse Iteration

 Displacement from previous Coordinates is:  0.349256
 ----------------------------------------------------------------
             Standard Nuclear Orientation (Angstroms)
    I     Atom           X                Y                Z
 ----------------------------------------------------------------
    1      C       1.3639869564     0.2276807382     0.2189198264
    2      O       1.3957375402     1.3814213519    -0.3304522616
    3      O       2.2356888126    -0.2576238735     0.9781149443
    4      C       0.0412746770    -0.7204404268    -0.1219994840
    5      C      -0.0634068329    -0.7087638332    -1.7258080659
    6      O       0.0553987242    -1.9581040211     0.3440051663
    7      C      -1.2238950069     0.1066311070     0.3422258725
    8      O      -2.0480953123    -0.3443744247     1.1387872187
    9      C      -1.4859298236     1.5395366459    -0.1709055451
   10      H      -1.0963254157     1.7165851492    -1.1746121425
   11      H      -0.9588600334     2.2459986219     0.4827526244
   12      H      -2.5696703175     1.7320706954    -0.1171232050
   13      H      -1.0494062411    -1.0868847126    -2.0491827921
   14      H       0.6936930172    -1.4278279721    -2.0637733733
   15      H       0.1306686904     0.2716370867    -2.1822223162
 ----------------------------------------------------------------
 Molecular Point Group                 C1    NOp =  1
 Largest Abelian Subgroup              C1    NOp =  1
 Nuclear Repulsion Energy =   449.4152761872 hartrees
 There are       35 alpha and       35 beta electrons
 Applying Cartesian multipole field
    Component          Value
    ---------          -----
     (2,0,0)        1.00000E-11
     (0,2,0)        2.00000E-11
     (0,0,2)       -3.00000E-11
 Nucleus-field energy     =     0.0000000049 hartrees
 Requested basis set is 6-31+G(d)
 There are 57 shells and 183 basis functions
 A cutoff of  1.0D-11 yielded   1553 shell pairs
 There are     16648 function pairs
 Smallest overlap matrix eigenvalue = 2.81E-05
 Guess MOs from SCF MO coefficient file
 Reading MOs from coefficient file
 Reading MOs from coefficient file
 A restricted hybrid HF-DFT SCF calculation will be
 performed using Pulay DIIS extrapolation
 Exchange:     0.2000 Hartree-Fock + 0.0800 Slater + 0.7200 B88
 Correlation:  0.1900 VWN1RPA + 0.8100 LYP
 Using SG-1 standard quadrature grid
 SCF converges when DIIS error is below 1.0E-08
Geometry optimization detected.  Setting ReadMinima to 0
Setting SaveMinima to 0
 CPU 0.00 s  wall 0.00 s
 CPU 6.88 s  wall 6.88 s
 ---------------------------------------
  Cycle       Energy         DIIS Error
 ---------------------------------------
    1    -494.9875605992      1.07E-03
 CPU 0.00 s  wall 0.00 s
 CPU 5.21 s  wall 5.21 s
    2    -494.9943894860      1.44E-04
 CPU 0.00 s  wall 0.00 s
 CPU 5.18 s  wall 5.18 s
    3    -494.9942637341      2.67E-04
 CPU 0.00 s  wall 0.00 s
 CPU 5.12 s  wall 5.12 s
    4    -494.9944893126      4.65E-05
 CPU 0.00 s  wall 0.00 s
 CPU 5.07 s  wall 5.07 s
    5    -494.9944953652      2.12E-05
 CPU 0.00 s  wall 0.00 s
 CPU 5.03 s  wall 5.03 s
    6    -494.9944968919      7.56E-06
 CPU 0.00 s  wall 0.00 s
 CPU 4.94 s  wall 4.94 s
    7    -494.9944970038      5.06E-06
 CPU 0.00 s  wall 0.00 s
 CPU 4.90 s  wall 4.90 s
    8    -494.9944971013      6.20E-07
 CPU 0.00 s  wall 0.00 s
 CPU 4.75 s  wall 4.75 s
    9    -494.9944971016      3.20E-07
 CPU 0.00 s  wall 0.00 s
 CPU 4.68 s  wall 4.68 s
   10    -494.9944971036      1.22E-07
 CPU 0.00 s  wall 0.00 s
 CPU 4.56 s  wall 4.56 s
   11    -494.9944971031      4.07E-08
 CPU 0.00 s  wall 0.00 s
 CPU 4.39 s  wall 4.39 s
   12    -494.9944971034      1.07E-08
 CPU 0.00 s  wall 0.00 s
 CPU 4.00 s  wall 4.00 s
   13    -494.9944971025      6.11E-09 Convergence criterion met
[...]
 132. (0.00003) RY*(13) C  7             s( 38.75%)p 0.72( 27.82%)d 0.86( 33.43%)
 133. (0.00002) RY*(14) C  7             s( 28.01%)p 0.72( 20.18%)d 1.85( 51.81%)
 134. (0.00740) RY*( 1) O  8             s(  8.54%)p10.60( 90.53%)d 0.11(  0.94%)
                                         0.0000 -0.0030  0.2881 -0.0482  0.0022
                                         0.0170 -0.4968  0.0377 -0.0102  0.7984
                                        -0.0024 -0.0058  0.1382 -0.0096 -0.0183
                                         0.0027  0.0564  0.0701  0.0305
 135. (0.00117) RY*( 2) O  8             s( 16.05%)p 5.14( 82.44%)d 0.09(  1.51%)
                                         0.0000  0.0017  0.3962  0.0491  0.0335
                                        -0.0001 -0.4112 -0.0502 -0.0031 -0.2598
                                        -0.0875 -0.0192 -0.7539  0.0945  0.0141
                                         0.0262  0.0660 -0.0415 -0.0902
 136. (0.00072) RY*( 3) O  8             s( 60.38%)p 0.61( 36.57%)d 0.05(  3.06%)
                                         0.0000  0.0023  0.7673 -0.0105  0.1221
                                         0.0145  0.1213 -0.1544  0.0001 -0.2770
                                        -0.1057 -0.0030  0.4790  0.0979  0.0017
                                         0.1619  0.0283 -0.0493  0.0336
 137. (0.00048) RY*( 4) O  8             s( 13.76%)p 5.93( 81.57%)d 0.34(  4.67%)
                                         0.0000  0.0069  0.3622  0.0531 -0.0599
                                         0.0089  0.6262  0.4115  0.0041  0.2953
                                         0.1347 -0.0001 -0.3392 -0.1837  0.1515
                                        -0.0237 -0.0585  0.0911  0.1069
 138. (0.00015) RY*( 5) O  8             s( 22.04%)p 2.87( 63.32%)d 0.66( 14.63%)
                                         0.0000  0.0091 -0.0788  0.4140  0.2068
                                         0.0185  0.3023 -0.3263  0.0054  0.2975
                                        -0.5597 -0.0143 -0.1398  0.1159 -0.2339
                                         0.1555  0.0136 -0.2161 -0.1435
 139. (0.00008) RY*( 6) O  8             s(  1.23%)p71.88( 88.61%)d 8.24( 10.15%)
 140. (0.00006) RY*( 7) O  8             s(  2.11%)p42.16( 89.00%)d 4.21(  8.89%)
 141. (0.00003) RY*( 8) O  8             s( 64.79%)p 0.06(  3.95%)d 0.48( 31.26%)
 142. (0.00002) RY*( 9) O  8             s( 21.36%)p 0.50( 10.77%)d 3.18( 67.87%)
 143. (0.00001) RY*(10) O  8             s( 40.57%)p 0.62( 24.96%)d 0.85( 34.47%)
 144. (0.00001) RY*(11) O  8             s( 45.70%)p 0.12(  5.42%)d 1.07( 48.88%)
 145. (0.00001) RY*(12) O  8             s(  2.59%)p 2.07(  5.35%)d35.61( 92.06%)
 146. (0.00001) RY*(13) O  8             s(  0.70%)p12.99(  9.04%)d99.99( 90.27%)
 147. (0.00000) RY*(14) O  8             s(  0.19%)p48.33(  9.22%)d99.99( 90.59%)
 148. (0.01695) RY*( 1) C  9             s( 54.86%)p 0.82( 45.06%)d 0.00(  0.08%)
                                         0.0000 -0.0102  0.7406  0.0040  0.0067
                                         0.0092  0.5001 -0.0265 -0.0193 -0.3826
                                         0.1715 -0.0007 -0.0186 -0.1519 -0.0259
                                        -0.0095  0.0020 -0.0001 -0.0087
 149. (0.00295) RY*( 2) C  9             s( 12.58%)p 6.73( 84.59%)d 0.22(  2.83%)
                                         0.0000  0.0031 -0.0940  0.3419 -0.0016
                                        -0.0063 -0.1577 -0.2327  0.0032 -0.5569
                                        -0.2030  0.0004  0.6281  0.1452  0.1080
                                        -0.0076 -0.1102 -0.0351  0.0565
 150. (0.00169) RY*( 3) C  9             s( 23.45%)p 3.17( 74.45%)d 0.09(  2.10%)
                                         0.0000 -0.0064  0.4007 -0.2689 -0.0396
                                         0.0117 -0.6532 -0.4290  0.0093  0.1204
                                         0.1299  0.0076  0.1178 -0.2971 -0.0546
                                         0.1098 -0.0070  0.0635 -0.0436
 151. (0.00100) RY*( 4) C  9             s(  5.47%)p15.59( 85.34%)d 1.68(  9.18%)
                                         0.0000  0.0041  0.0595  0.2261  0.0087
                                         0.0026 -0.2753 -0.2166 -0.0018 -0.3706
                                        -0.1658  0.0048 -0.7176  0.2256  0.2634
                                        -0.0389  0.1152 -0.0301 -0.0824
 152. (0.00045) RY*( 5) C  9             s(  8.04%)p 9.30( 74.85%)d 2.13( 17.11%)
                                         0.0000  0.0047  0.0873  0.2264 -0.1468
                                        -0.0064 -0.1962  0.4952 -0.0040 -0.0168
                                        -0.2791  0.0054 -0.0288 -0.6210  0.3092
                                        -0.1986 -0.1877  0.0041  0.0279
 153. (0.00025) RY*( 6) C  9             s( 14.09%)p 1.42( 20.00%)d 4.68( 65.91%)
                                         0.0000 -0.0007  0.0433  0.3729 -0.0010
                                         0.0067  0.1514 -0.2835 -0.0071  0.2676
                                        -0.0782  0.0214 -0.1355 -0.0002 -0.0444
                                         0.2280 -0.6006  0.4647  0.1689
 154. (0.00020) RY*( 7) C  9             s( 26.18%)p 1.83( 48.03%)d 0.98( 25.78%)
                                         0.0000 -0.0019 -0.3443  0.3452  0.1553
                                         0.0144  0.0879 -0.1970 -0.0054 -0.1631
                                         0.2791 -0.0097 -0.0990 -0.5649 -0.2527
                                         0.2020  0.3823  0.0785  0.0298
 155. (0.00011) RY*( 8) C  9             s(  6.02%)p 6.44( 38.76%)d 9.17( 55.22%)
                                         0.0000 -0.0110 -0.0071  0.2084  0.1288
                                        -0.0189  0.0832 -0.2290 -0.0092  0.2838
                                         0.4847  0.0011  0.1093  0.0196  0.6386
                                        -0.3514  0.0627 -0.0992  0.0842
 156. (0.00006) RY*( 9) C  9             s(  2.13%)p37.83( 80.54%)d 8.14( 17.34%)
 157. (0.00002) RY*(10) C  9             s( 47.53%)p 0.70( 33.21%)d 0.41( 19.26%)
 158. (0.00002) RY*(11) C  9             s(  1.31%)p 1.73(  2.28%)d73.43( 96.41%)
 159. (0.00001) RY*(12) C  9             s( 93.15%)p 0.07(  6.12%)d 0.01(  0.73%)
 160. (0.00002) RY*(13) C  9             s(  3.98%)p 1.03(  4.10%)d23.12( 91.92%)
 161. (0.00002) RY*(14) C  9             s(  1.20%)p 2.50(  3.00%)d79.79( 95.80%)
 162. (0.00110) RY*( 1) H 10             s(100.00%)
                                        -0.0024  1.0000
 163. (0.00191) RY*( 1) H 11             s(100.00%)
                                        -0.0026  1.0000
 164. (0.00284) RY*( 1) H 12             s(100.00%)
                                        -0.0041  1.0000
 165. (0.00269) RY*( 1) H 13             s(100.00%)
                                        -0.0042  1.0000
 166. (0.00193) RY*( 1) H 14             s(100.00%)
                                        -0.0040  1.0000
 167. (0.00229) RY*( 1) H 15             s(100.00%)
                                        -0.0049  1.0000
 168. (0.07408) BD*( 1) C  1- O  2       
               ( 66.33%)   0.8144* C  1 s( 30.45%)p 2.28( 69.37%)d 0.01(  0.18%)
                                        -0.0001  0.5491 -0.0542 -0.0018  0.0041
                                         0.4914  0.0547 -0.0081  0.2075  0.0097
                                        -0.0037 -0.6369 -0.0196 -0.0061  0.0050
                                        -0.0344 -0.0149  0.0125  0.0133
               ( 33.67%)  -0.5803* O  2 s( 36.75%)p 1.71( 62.99%)d 0.01(  0.26%)
                                         0.0000  0.6061 -0.0121 -0.0060 -0.0048
                                        -0.6546  0.0143  0.0005  0.1487 -0.0038
                                         0.0019  0.4228 -0.0179  0.0011 -0.0056
                                        -0.0427  0.0023  0.0260  0.0050
 169. (0.36712) BD*( 2) C  1- O  2       
               ( 76.48%)   0.8745* C  1 s(  3.51%)p27.38( 96.14%)d 0.10(  0.35%)
                                         0.0000 -0.1837  0.0369  0.0017  0.0014
                                        -0.5601  0.0037 -0.0115  0.7181 -0.0390
                                         0.0169 -0.3598  0.0226 -0.0046  0.0315
                                         0.0096 -0.0357 -0.0211  0.0260
               ( 23.52%)  -0.4850* O  2 s(  1.84%)p53.13( 97.96%)d 0.11(  0.20%)
                                         0.0000 -0.1356  0.0065  0.0001  0.0013
                                        -0.2917 -0.0015  0.0017  0.7823 -0.0039
                                        -0.0006 -0.5314  0.0088 -0.0010 -0.0254
                                         0.0110  0.0234  0.0097 -0.0234
 170. (0.07540) BD*( 1) C  1- O  3       
               ( 66.44%)   0.8151* C  1 s( 33.36%)p 1.99( 66.44%)d 0.01(  0.19%)
                                         0.0001 -0.5749  0.0553  0.0044 -0.0034
                                         0.0014 -0.0282  0.0064 -0.4794 -0.0324
                                         0.0052 -0.6565 -0.0414 -0.0028  0.0104
                                         0.0011 -0.0373  0.0144 -0.0157
               ( 33.56%)  -0.5793* O  3 s( 35.85%)p 1.78( 63.90%)d 0.01(  0.25%)
                                         0.0000 -0.5986  0.0089  0.0064 -0.0046
                                         0.1013  0.0058 -0.0019  0.1930 -0.0077
                                        -0.0021  0.7687 -0.0213  0.0000 -0.0002
                                        -0.0051 -0.0310  0.0068 -0.0386
 171. (0.14670) BD*( 1) C  1- C  4       
               ( 52.97%)   0.7278* C  1 s( 33.47%)p 1.99( 66.46%)d 0.00(  0.08%)
                                        -0.0005 -0.5738 -0.0736  0.0009  0.0046
                                         0.6563 -0.0115 -0.0221  0.4530  0.0115
                                        -0.0154  0.1660 -0.0048 -0.0033 -0.0181
                                        -0.0118 -0.0005 -0.0068  0.0157
               ( 47.03%)  -0.6858* C  4 s( 24.05%)p 3.16( 75.88%)d 0.00(  0.07%)
                                         0.0003 -0.4894  0.0310 -0.0001  0.0003
                                        -0.7044  0.0081  0.0015 -0.4874  0.0274
                                         0.0156 -0.1547 -0.0025  0.0035 -0.0233
                                        -0.0035 -0.0060 -0.0007  0.0113
 172. (0.08428) BD*( 1) C  4- C  5       
               ( 52.79%)   0.7266* C  4 s( 23.85%)p 3.19( 76.08%)d 0.00(  0.07%)
                                        -0.0003  0.4883  0.0022 -0.0075 -0.0006
                                        -0.1547  0.0062  0.0035  0.0052 -0.0205
                                        -0.0029 -0.8580 -0.0029  0.0084 -0.0013
                                         0.0125 -0.0069  0.0047  0.0221
               ( 47.21%)  -0.6871* C  5 s( 27.72%)p 2.61( 72.24%)d 0.00(  0.04%)
                                         0.0006  0.5259 -0.0236  0.0054  0.0014
                                         0.1442  0.0001  0.0051  0.0482 -0.0141
                                        -0.0081  0.8358 -0.0163 -0.0100  0.0000
                                         0.0053  0.0018  0.0016  0.0202
 173. (0.01353) BD*( 1) C  4- O  6       
               ( 61.95%)   0.7871* C  4 s( 28.94%)p 2.45( 70.94%)d 0.00(  0.12%)
                                         0.0002 -0.5336 -0.0681 -0.0009 -0.0010
                                        -0.1112 -0.0146 -0.0008  0.7841  0.0527
                                         0.0134 -0.2802 -0.0242 -0.0060  0.0060
                                        -0.0025  0.0174  0.0265  0.0118
               ( 38.05%)  -0.6169* O  6 s( 33.52%)p 1.98( 66.27%)d 0.01(  0.21%)
                                        -0.0001 -0.5786  0.0181  0.0077  0.0007
                                         0.0998 -0.0032 -0.0021 -0.7696  0.0262
                                         0.0092  0.2440 -0.0094 -0.0038  0.0101
                                        -0.0036  0.0232  0.0345  0.0160
 174. (0.12781) BD*( 1) C  4- C  7       
               ( 52.23%)   0.7227* C  4 s( 23.29%)p 3.29( 76.62%)d 0.00(  0.09%)
                                         0.0000  0.4824 -0.0141  0.0029  0.0003
                                        -0.6827  0.0012  0.0033  0.3741 -0.0136
                                        -0.0101  0.3998  0.0071 -0.0025 -0.0206
                                        -0.0129  0.0115  0.0105 -0.0084
               ( 47.77%)  -0.6911* C  7 s( 37.65%)p 1.66( 62.31%)d 0.00(  0.04%)
                                         0.0002  0.6126  0.0340  0.0047 -0.0046
                                         0.6171 -0.0158 -0.0176 -0.4053 -0.0011
                                         0.0106 -0.2776  0.0157  0.0093 -0.0132
                                        -0.0101  0.0090  0.0084 -0.0037
 175. (0.01305) BD*( 1) C  5- H 13       
               ( 39.82%)   0.6310* C  5 s( 24.00%)p 3.16( 75.90%)d 0.00(  0.09%)
                                         0.0000  0.4895  0.0201 -0.0004 -0.0011
                                        -0.6799 -0.0027 -0.0011 -0.5205 -0.0096
                                        -0.0021 -0.1602 -0.0023 -0.0080  0.0245
                                         0.0084  0.0058  0.0077 -0.0136
               ( 60.18%)  -0.7758* H 13 s(100.00%)
                                         1.0000  0.0042
 176. (0.01151) BD*( 1) C  5- H 14       
               ( 37.62%)   0.6133* C  5 s( 24.38%)p 3.10( 75.53%)d 0.00(  0.09%)
                                         0.0001 -0.4936 -0.0145  0.0028 -0.0001
                                        -0.6960 -0.0041  0.0020  0.3183 -0.0018
                                        -0.0004  0.4117 -0.0003  0.0046  0.0149
                                         0.0196 -0.0085 -0.0128  0.0041
               ( 62.38%)  -0.7898* H 14 s(100.00%)
                                        -1.0000 -0.0040
 177. (0.01966) BD*( 1) C  5- H 15       
               ( 40.54%)   0.6367* C  5 s( 23.99%)p 3.17( 75.92%)d 0.00(  0.10%)
                                         0.0001 -0.4893 -0.0210  0.0028  0.0001
                                         0.1765 -0.0035  0.0004 -0.7899 -0.0126
                                         0.0007  0.3222  0.0077  0.0107  0.0103
                                        -0.0044  0.0191  0.0202  0.0086
               ( 59.46%)  -0.7711* H 15 s(100.00%)
                                        -1.0000 -0.0049
 178. (0.01449) BD*( 1) C  7- O  8       
               ( 66.69%)   0.8166* C  7 s( 30.80%)p 2.24( 69.04%)d 0.01(  0.16%)
                                         0.0000 -0.5499  0.0747 -0.0043 -0.0047
                                         0.5762  0.0402  0.0021  0.3689  0.0359
                                         0.0066 -0.4666 -0.0399 -0.0033 -0.0218
                                         0.0267  0.0147 -0.0139 -0.0005
               ( 33.31%)  -0.5772* O  8 s( 43.40%)p 1.30( 56.30%)d 0.01(  0.30%)
                                         0.0000 -0.6586  0.0132  0.0055 -0.0020
                                        -0.5158  0.0105  0.0003 -0.3146  0.0103
                                         0.0017  0.4446 -0.0100 -0.0011 -0.0298
                                         0.0370  0.0239 -0.0141 -0.0021
 179. (0.10630) BD*( 2) C  7- O  8       
               ( 70.90%)   0.8420* C  7 s(  0.05%)p99.99( 99.67%)d 5.33(  0.28%)
                                         0.0000  0.0170 -0.0147 -0.0044  0.0000
                                         0.5167 -0.0180  0.0139  0.2530 -0.0134
                                         0.0074  0.8150 -0.0206  0.0186 -0.0191
                                        -0.0180 -0.0076 -0.0165  0.0420
               ( 29.10%)  -0.5395* O  8 s(  0.01%)p99.99( 99.74%)d24.00(  0.25%)
                                         0.0000  0.0099 -0.0018  0.0015  0.0010
                                         0.5275 -0.0080 -0.0019  0.2564 -0.0042
                                        -0.0008  0.8082 -0.0101  0.0011  0.0210
                                         0.0106  0.0125  0.0109 -0.0411
 180. (0.07072) BD*( 1) C  7- C  9       
               ( 53.56%)   0.7318* C  7 s( 31.80%)p 2.14( 68.13%)d 0.00(  0.08%)
                                        -0.0002  0.5638 -0.0055 -0.0110 -0.0001
                                        -0.1191 -0.0080  0.0039  0.7958  0.0006
                                        -0.0040 -0.1835  0.0092 -0.0018 -0.0077
                                         0.0047 -0.0101 -0.0220 -0.0103
               ( 46.44%)  -0.6815* C  9 s( 27.02%)p 2.70( 72.92%)d 0.00(  0.06%)
                                         0.0002  0.5197 -0.0080 -0.0068  0.0013
                                         0.1375 -0.0121 -0.0015 -0.8238  0.0026
                                         0.0087  0.1771  0.0054  0.0028 -0.0046
                                         0.0025 -0.0085 -0.0203 -0.0099
 181. (0.00976) BD*( 1) C  9- H 10       
               ( 37.81%)   0.6149* C  9 s( 25.83%)p 2.87( 74.09%)d 0.00(  0.09%)
                                         0.0002 -0.5082 -0.0043 -0.0038  0.0007
                                        -0.6327 -0.0057  0.0025 -0.3212 -0.0038
                                        -0.0070  0.4871 -0.0027 -0.0030 -0.0136
                                         0.0212  0.0109 -0.0097  0.0004
               ( 62.19%)  -0.7886* H 10 s(100.00%)
                                        -1.0000 -0.0024
 182. (0.00798) BD*( 1) C  9- H 11       
               ( 38.25%)   0.6185* C  9 s( 23.98%)p 3.17( 75.93%)d 0.00(  0.08%)
                                         0.0001 -0.4896 -0.0083 -0.0032 -0.0001
                                         0.0565 -0.0126 -0.0016 -0.4578  0.0018
                                        -0.0086 -0.7391 -0.0016  0.0027  0.0030
                                         0.0032 -0.0213  0.0066 -0.0178
               ( 61.75%)  -0.7858* H 11 s(100.00%)
                                        -1.0000 -0.0026
 183. (0.01250) BD*( 1) C  9- H 12       
               ( 39.85%)   0.6313* C  9 s( 23.18%)p 3.31( 76.73%)d 0.00(  0.09%)
                                        -0.0001  0.4812  0.0151  0.0015 -0.0006
                                        -0.7590 -0.0023 -0.0032  0.0843 -0.0016
                                         0.0102 -0.4289 -0.0053 -0.0046 -0.0032
                                         0.0224 -0.0011  0.0192 -0.0052
               ( 60.15%)  -0.7756* H 12 s(100.00%)
                                         1.0000  0.0041
 SVNBO: NDIM =          183
 NBO state            0

 *******************************************************************************
Archival summary:
1\1\bt2600-16\OPT\ProcedureUnspecified\6-31+G*\456(2-,1)\emavera\SunApr2320:17:332017SunApr2320:17:332017\0\\#,OPT,ProcedureUnspecified,6-31+G*,\\-2,1\C\O,1,1.33393\C,1,1.56852,2,115.087\O,3,1.22853,1,124.907,2,8.02932,0\C,3,1.54584,1,118.206,2,-175.496,0\H,5,1.09235,3,113.243,1,4.91543,0\H,5,1.09673,3,108.098,1,125.145,0\H,5,1.10242,3,108.588,1,-117.385,0\C,1,1.59344,2,110.565,3,116.227,0\H,9,1.09476,1,105.427,2,63.6694,0\H,9,1.10106,1,108.08,2,-53.707,0\H,9,1.10536,1,115.662,2,-177.018,0\C,1,1.61549,2,113.442,3,-121.82,0\O,13,1.26598,1,117.861,2,-87.3779,0\O,13,1.27134,1,115.906,2,90.9726,0\\\@

 Total job time:  8685.66s(wall), 8698.94s(cpu) 
 Sun Apr 23 20:17:33 2017

        *************************************************************
        *                                                           *
        *  Thank you very much for using Q-Chem.  Have a nice day.  *
        *                                                           *
        *************************************************************


0 sent ACK to 0 
now end server 0 ... 
cleanup process ... done
