Jobname.Temp
FOPT      R                             6-31+G(d)           
Number of atoms                            I               15
Charge                                     I               -2
Multiplicity                               I                1
Number of electrons                        I               70
Number of alpha electrons                  I               35
Number of beta electrons                   I               35
Atomic numbers                             I   N=          15
           6           8           8           6           6           8
           6           8           6           1           1           1
           1           1           1
Current cartesian coordinates              R   N=          45
  2.42452356E+00  6.57641216E-01  3.32124110E-01  2.82212761E+00  2.89424299E+00
 -3.33382599E-01  4.14394509E+00 -4.80804151E-01  1.69329452E+00  6.42055630E-03
 -9.46348001E-01 -5.04853618E-01 -2.33444963E-01 -1.37316223E+00 -3.34299108E+00
  2.72364382E-01 -3.34847406E+00  6.33240771E-01 -2.35399246E+00  2.94470319E-01
  5.40308209E-01 -3.85311743E+00 -8.94194937E-01  1.97574944E+00 -2.85228991E+00
  2.90123883E+00 -1.50381481E-01 -1.85062255E+00  3.27510868E+00 -1.86918985E+00
 -1.60596563E+00  3.88183728E+00  1.13817338E+00 -4.96162900E+00  3.30386140E+00
 -3.66710994E-01 -2.07589896E+00 -2.17465467E+00 -4.06369641E+00  1.03809157E+00
 -3.14562389E+00 -3.38326261E+00  4.26166567E-01  2.90271580E-01 -4.45176740E+00
Nuclear charges                            R   N=          15
  6.00000000E+00  8.00000000E+00  8.00000000E+00  6.00000000E+00  6.00000000E+00
  8.00000000E+00  6.00000000E+00  8.00000000E+00  6.00000000E+00  1.00000000E+00
  1.00000000E+00  1.00000000E+00  1.00000000E+00  1.00000000E+00  1.00000000E+00
Number of basis functions                  I              183
Number of contracted shells                I               57
Number of primitive shells                 I              132
Highest angular momentum                   I                2
Largest degree of contraction              I                6
Shell types                                I   N=          57
           0          -1          -1          -1           2           0
          -1          -1          -1           2           0          -1
          -1          -1           2           0          -1          -1
          -1           2           0          -1          -1          -1
           2           0          -1          -1          -1           2
           0          -1          -1          -1           2           0
          -1          -1          -1           2           0          -1
          -1          -1           2           0           0           0
           0           0           0           0           0           0
           0           0           0
Number of primitives per shell             I   N=          57
           6           3           1           1           1           6
           3           1           1           1           6           3
           1           1           1           6           3           1
           1           1           6           3           1           1
           1           6           3           1           1           1
           6           3           1           1           1           6
           3           1           1           1           6           3
           1           1           1           3           1           3
           1           3           1           3           1           3
           1           3           1
Shell to atom map                          I   N=          57
           1           1           1           1           1           2
           2           2           2           2           3           3
           3           3           3           4           4           4
           4           4           5           5           5           5
           5           6           6           6           6           6
           7           7           7           7           7           8
           8           8           8           8           9           9
           9           9           9          10          10          11
          11          12          12          13          13          14
          14          15          15
Primitive exponents                        R   N=         132
  3.04752490E+03  4.57369510E+02  1.03948690E+02  2.92101550E+01  9.28666300E+00
  3.16392700E+00  7.86827240E+00  1.88128850E+00  5.44249300E-01  1.68714400E-01
  4.38000000E-02  8.00000000E-01  5.48467170E+03  8.25234950E+02  1.88046960E+02
  5.29645000E+01  1.68975700E+01  5.79963530E+00  1.55396160E+01  3.59993360E+00
  1.01376180E+00  2.70005800E-01  8.45000000E-02  8.00000000E-01  5.48467170E+03
  8.25234950E+02  1.88046960E+02  5.29645000E+01  1.68975700E+01  5.79963530E+00
  1.55396160E+01  3.59993360E+00  1.01376180E+00  2.70005800E-01  8.45000000E-02
  8.00000000E-01  3.04752490E+03  4.57369510E+02  1.03948690E+02  2.92101550E+01
  9.28666300E+00  3.16392700E+00  7.86827240E+00  1.88128850E+00  5.44249300E-01
  1.68714400E-01  4.38000000E-02  8.00000000E-01  3.04752490E+03  4.57369510E+02
  1.03948690E+02  2.92101550E+01  9.28666300E+00  3.16392700E+00  7.86827240E+00
  1.88128850E+00  5.44249300E-01  1.68714400E-01  4.38000000E-02  8.00000000E-01
  5.48467170E+03  8.25234950E+02  1.88046960E+02  5.29645000E+01  1.68975700E+01
  5.79963530E+00  1.55396160E+01  3.59993360E+00  1.01376180E+00  2.70005800E-01
  8.45000000E-02  8.00000000E-01  3.04752490E+03  4.57369510E+02  1.03948690E+02
  2.92101550E+01  9.28666300E+00  3.16392700E+00  7.86827240E+00  1.88128850E+00
  5.44249300E-01  1.68714400E-01  4.38000000E-02  8.00000000E-01  5.48467170E+03
  8.25234950E+02  1.88046960E+02  5.29645000E+01  1.68975700E+01  5.79963530E+00
  1.55396160E+01  3.59993360E+00  1.01376180E+00  2.70005800E-01  8.45000000E-02
  8.00000000E-01  3.04752490E+03  4.57369510E+02  1.03948690E+02  2.92101550E+01
  9.28666300E+00  3.16392700E+00  7.86827240E+00  1.88128850E+00  5.44249300E-01
  1.68714400E-01  4.38000000E-02  8.00000000E-01  1.87311370E+01  2.82539370E+00
  6.40121700E-01  1.61277800E-01  1.87311370E+01  2.82539370E+00  6.40121700E-01
  1.61277800E-01  1.87311370E+01  2.82539370E+00  6.40121700E-01  1.61277800E-01
  1.87311370E+01  2.82539370E+00  6.40121700E-01  1.61277800E-01  1.87311370E+01
  2.82539370E+00  6.40121700E-01  1.61277800E-01  1.87311370E+01  2.82539370E+00
  6.40121700E-01  1.61277800E-01
Contraction coefficients                   R   N=         132
  3.17779390E-03  2.43133190E-02  1.19238892E-01  4.02155213E-01  8.10498179E-01
  6.27542848E-01 -1.19332409E-01 -1.60854212E-01  1.14345648E+00  1.00000000E+00
  1.00000000E+00  1.00000000E+00  3.17155790E-03  2.41622794E-02  1.18550378E-01
  4.03072948E-01  8.14398079E-01  6.20976348E-01 -1.10777504E-01 -1.48026305E-01
  1.13076704E+00  1.00000000E+00  1.00000000E+00  1.00000000E+00  3.17155790E-03
  2.41622794E-02  1.18550378E-01  4.03072948E-01  8.14398079E-01  6.20976348E-01
 -1.10777504E-01 -1.48026305E-01  1.13076704E+00  1.00000000E+00  1.00000000E+00
  1.00000000E+00  3.17779390E-03  2.43133190E-02  1.19238892E-01  4.02155213E-01
  8.10498179E-01  6.27542848E-01 -1.19332409E-01 -1.60854212E-01  1.14345648E+00
  1.00000000E+00  1.00000000E+00  1.00000000E+00  3.17779390E-03  2.43133190E-02
  1.19238892E-01  4.02155213E-01  8.10498179E-01  6.27542848E-01 -1.19332409E-01
 -1.60854212E-01  1.14345648E+00  1.00000000E+00  1.00000000E+00  1.00000000E+00
  3.17155790E-03  2.41622794E-02  1.18550378E-01  4.03072948E-01  8.14398079E-01
  6.20976348E-01 -1.10777504E-01 -1.48026305E-01  1.13076704E+00  1.00000000E+00
  1.00000000E+00  1.00000000E+00  3.17779390E-03  2.43133190E-02  1.19238892E-01
  4.02155213E-01  8.10498179E-01  6.27542848E-01 -1.19332409E-01 -1.60854212E-01
  1.14345648E+00  1.00000000E+00  1.00000000E+00  1.00000000E+00  3.17155790E-03
  2.41622794E-02  1.18550378E-01  4.03072948E-01  8.14398079E-01  6.20976348E-01
 -1.10777504E-01 -1.48026305E-01  1.13076704E+00  1.00000000E+00  1.00000000E+00
  1.00000000E+00  3.17779390E-03  2.43133190E-02  1.19238892E-01  4.02155213E-01
  8.10498179E-01  6.27542848E-01 -1.19332409E-01 -1.60854212E-01  1.14345648E+00
  1.00000000E+00  1.00000000E+00  1.00000000E+00  5.80143482E-02  4.06558998E-01
  1.40946902E+00  1.73205081E+00  5.80143482E-02  4.06558998E-01  1.40946902E+00
  1.73205081E+00  5.80143482E-02  4.06558998E-01  1.40946902E+00  1.73205081E+00
  5.80143482E-02  4.06558998E-01  1.40946902E+00  1.73205081E+00  5.80143482E-02
  4.06558998E-01  1.40946902E+00  1.73205081E+00  5.80143482E-02  4.06558998E-01
  1.40946902E+00  1.73205081E+00
P(S=P) Contraction coefficients            R   N=         132
  0.00000000E+00  0.00000000E+00  0.00000000E+00  0.00000000E+00  0.00000000E+00
  0.00000000E+00  1.19509939E-01  5.48062410E-01  1.28917971E+00  1.73205081E+00
  1.73205081E+00  0.00000000E+00  0.00000000E+00  0.00000000E+00  0.00000000E+00
  0.00000000E+00  0.00000000E+00  0.00000000E+00  1.22757888E-01  5.88469108E-01
  1.25947563E+00  1.73205081E+00  1.73205081E+00  0.00000000E+00  0.00000000E+00
  0.00000000E+00  0.00000000E+00  0.00000000E+00  0.00000000E+00  0.00000000E+00
  1.22757888E-01  5.88469108E-01  1.25947563E+00  1.73205081E+00  1.73205081E+00
  0.00000000E+00  0.00000000E+00  0.00000000E+00  0.00000000E+00  0.00000000E+00
  0.00000000E+00  0.00000000E+00  1.19509939E-01  5.48062410E-01  1.28917971E+00
  1.73205081E+00  1.73205081E+00  0.00000000E+00  0.00000000E+00  0.00000000E+00
  0.00000000E+00  0.00000000E+00  0.00000000E+00  0.00000000E+00  1.19509939E-01
  5.48062410E-01  1.28917971E+00  1.73205081E+00  1.73205081E+00  0.00000000E+00
  0.00000000E+00  0.00000000E+00  0.00000000E+00  0.00000000E+00  0.00000000E+00
  0.00000000E+00  1.22757888E-01  5.88469108E-01  1.25947563E+00  1.73205081E+00
  1.73205081E+00  0.00000000E+00  0.00000000E+00  0.00000000E+00  0.00000000E+00
  0.00000000E+00  0.00000000E+00  0.00000000E+00  1.19509939E-01  5.48062410E-01
  1.28917971E+00  1.73205081E+00  1.73205081E+00  0.00000000E+00  0.00000000E+00
  0.00000000E+00  0.00000000E+00  0.00000000E+00  0.00000000E+00  0.00000000E+00
  1.22757888E-01  5.88469108E-01  1.25947563E+00  1.73205081E+00  1.73205081E+00
  0.00000000E+00  0.00000000E+00  0.00000000E+00  0.00000000E+00  0.00000000E+00
  0.00000000E+00  0.00000000E+00  1.19509939E-01  5.48062410E-01  1.28917971E+00
  1.73205081E+00  1.73205081E+00  0.00000000E+00  0.00000000E+00  0.00000000E+00
  0.00000000E+00  0.00000000E+00  0.00000000E+00  0.00000000E+00  0.00000000E+00
  0.00000000E+00  0.00000000E+00  0.00000000E+00  0.00000000E+00  0.00000000E+00
  0.00000000E+00  0.00000000E+00  0.00000000E+00  0.00000000E+00  0.00000000E+00
  0.00000000E+00  0.00000000E+00  0.00000000E+00  0.00000000E+00  0.00000000E+00
  0.00000000E+00  0.00000000E+00
Coordinates of each shell                  R   N=         171
  2.42452356E+00  6.57641216E-01  3.32124110E-01  2.42452356E+00  6.57641216E-01
  3.32124110E-01  2.42452356E+00  6.57641216E-01  3.32124110E-01  2.42452356E+00
  6.57641216E-01  3.32124110E-01  2.42452356E+00  6.57641216E-01  3.32124110E-01
  2.82212761E+00  2.89424299E+00 -3.33382599E-01  2.82212761E+00  2.89424299E+00
 -3.33382599E-01  2.82212761E+00  2.89424299E+00 -3.33382599E-01  2.82212761E+00
  2.89424299E+00 -3.33382599E-01  2.82212761E+00  2.89424299E+00 -3.33382599E-01
  4.14394509E+00 -4.80804151E-01  1.69329452E+00  4.14394509E+00 -4.80804151E-01
  1.69329452E+00  4.14394509E+00 -4.80804151E-01  1.69329452E+00  4.14394509E+00
 -4.80804151E-01  1.69329452E+00  4.14394509E+00 -4.80804151E-01  1.69329452E+00
  6.42055630E-03 -9.46348001E-01 -5.04853618E-01  6.42055630E-03 -9.46348001E-01
 -5.04853618E-01  6.42055630E-03 -9.46348001E-01 -5.04853618E-01  6.42055630E-03
 -9.46348001E-01 -5.04853618E-01  6.42055630E-03 -9.46348001E-01 -5.04853618E-01
 -2.33444963E-01 -1.37316223E+00 -3.34299108E+00 -2.33444963E-01 -1.37316223E+00
 -3.34299108E+00 -2.33444963E-01 -1.37316223E+00 -3.34299108E+00 -2.33444963E-01
 -1.37316223E+00 -3.34299108E+00 -2.33444963E-01 -1.37316223E+00 -3.34299108E+00
  2.72364382E-01 -3.34847406E+00  6.33240771E-01  2.72364382E-01 -3.34847406E+00
  6.33240771E-01  2.72364382E-01 -3.34847406E+00  6.33240771E-01  2.72364382E-01
 -3.34847406E+00  6.33240771E-01  2.72364382E-01 -3.34847406E+00  6.33240771E-01
 -2.35399246E+00  2.94470319E-01  5.40308209E-01 -2.35399246E+00  2.94470319E-01
  5.40308209E-01 -2.35399246E+00  2.94470319E-01  5.40308209E-01 -2.35399246E+00
  2.94470319E-01  5.40308209E-01 -2.35399246E+00  2.94470319E-01  5.40308209E-01
 -3.85311743E+00 -8.94194937E-01  1.97574944E+00 -3.85311743E+00 -8.94194937E-01
  1.97574944E+00 -3.85311743E+00 -8.94194937E-01  1.97574944E+00 -3.85311743E+00
 -8.94194937E-01  1.97574944E+00 -3.85311743E+00 -8.94194937E-01  1.97574944E+00
 -2.85228991E+00  2.90123883E+00 -1.50381481E-01 -2.85228991E+00  2.90123883E+00
 -1.50381481E-01 -2.85228991E+00  2.90123883E+00 -1.50381481E-01 -2.85228991E+00
  2.90123883E+00 -1.50381481E-01 -2.85228991E+00  2.90123883E+00 -1.50381481E-01
 -1.85062255E+00  3.27510868E+00 -1.86918985E+00 -1.85062255E+00  3.27510868E+00
 -1.86918985E+00 -1.60596563E+00  3.88183728E+00  1.13817338E+00 -1.60596563E+00
  3.88183728E+00  1.13817338E+00 -4.96162900E+00  3.30386140E+00 -3.66710994E-01
 -4.96162900E+00  3.30386140E+00 -3.66710994E-01 -2.07589896E+00 -2.17465467E+00
 -4.06369641E+00 -2.07589896E+00 -2.17465467E+00 -4.06369641E+00  1.03809157E+00
 -3.14562389E+00 -3.38326261E+00  1.03809157E+00 -3.14562389E+00 -3.38326261E+00
  4.26166567E-01  2.90271580E-01 -4.45176740E+00  4.26166567E-01  2.90271580E-01
 -4.45176740E+00
SCF Energy                                 R     -4.949413803243897E+02
Dipole_Data                                R   N=           3
 -5.34345910E+00  4.25331421E+00 -3.63429651E+00
Quadrupole_Data                            R   N=           6
 -9.40854212E+01 -5.83774485E+00 -8.62374704E+01 -1.12438788E+00  5.47603358E+00
 -7.22226390E+01
Octapole_Data                              R   N=          10
 -1.88663728E+01 -7.43640910E+00 -6.91648272E+00  9.41495220E+00 -2.36783771E+01
  1.14634678E+00  2.48011586E+00  2.71781943E+00  7.41430457E+00  2.54192348E+01
Hexadecapole_Data                          R   N=          15
 -9.45380933E+02 -5.90828590E+00 -2.60789809E+02  8.10454928E-01 -6.30764592E+02
 -1.24001767E+01  8.10608721E+00 -1.33412019E+00  5.16091383E+00 -2.28036581E+02
  9.53241201E-01 -1.59382883E+02 -1.31844709E+01 -1.48911076E+01 -4.55205726E+02
Cartesian Forces                           R   N=          45
  7.29770301E-02 -2.80449394E-02  3.36606904E-02 -2.42065235E-02  3.36929974E-02
 -2.29230988E-02 -3.89777564E-02  9.81545563E-03 -2.20602881E-02  7.11246500E-03
 -6.74444910E-02  6.36254611E-02  1.87591104E-02 -2.68544934E-02 -1.96066627E-02
 -1.26351115E-02  2.00805347E-02 -2.29936575E-02 -3.49809930E-02 -5.77081110E-02
  3.19592356E-02  1.91115013E-02  3.01277978E-02 -2.52272046E-02 -2.09175652E-02
  1.60364339E-02 -1.77493957E-02  6.68594112E-04  6.23614324E-03 -1.98112767E-02
 -9.68666099E-03  2.20874784E-02  1.42321161E-02  2.60487221E-02  4.67710016E-03
  1.40249610E-02  7.06627727E-03  1.56248485E-02  1.15255436E-02 -8.57371105E-03
  3.09292121E-02 -1.35920240E-02 -1.76537843E-03 -9.25596722E-03 -5.06439979E-03
Current cartesian coordinates              R   N=          45
  2.43039338E+00  6.28607725E-01  3.39204266E-01  2.58127674E+00  2.88681529E+00
 -4.25042467E-01  4.18326202E+00 -4.00259415E-01  1.68294188E+00  2.37771582E-02
 -1.07103135E+00 -4.25893495E-01 -1.85429192E-01 -1.39641119E+00 -3.31643157E+00
  2.47380285E-01 -3.47964689E+00  6.28046544E-01 -2.36484702E+00  2.36248965E-01
  5.75883785E-01 -3.92900354E+00 -8.51289960E-01  1.97519375E+00 -2.80702143E+00
  2.90721991E+00 -1.57505972E-01 -1.80510495E+00  3.29547628E+00 -1.90074503E+00
 -1.62549568E+00  3.97419339E+00  1.15216286E+00 -4.86919586E+00  3.34423516E+00
 -3.59286917E-01 -2.05026458E+00 -2.11962356E+00 -3.99002895E+00  1.07168334E+00
 -3.10626869E+00 -3.53487043E+00  4.45267767E-01  2.87144689E-01 -4.39697385E+00
SCF Energy                                 R     -4.949699308788593E+02
Dipole_Data                                R   N=           3
 -4.89483053E+00  4.25627120E+00 -3.43082944E+00
Quadrupole_Data                            R   N=           6
 -9.33727512E+01 -5.57416436E+00 -8.71326870E+01 -9.01048733E-01  5.49283172E+00
 -7.18288492E+01
Octapole_Data                              R   N=          10
 -1.41230514E+01 -6.50182774E+00 -5.57521190E+00  1.48981694E+01 -2.36920447E+01
  1.21034852E+00  2.40907401E+00  3.37945682E+00  8.17532592E+00  2.46176876E+01
Hexadecapole_Data                          R   N=          15
 -9.35182745E+02 -2.06958979E+00 -2.58922673E+02  2.92397203E+00 -6.48119668E+02
 -7.81610788E+00  8.24282001E+00 -1.88986904E-01  6.68251808E+00 -2.24766860E+02
  5.52913481E-01 -1.61646933E+02 -8.92334834E+00 -1.48089640E+01 -4.47972009E+02
Cartesian Forces                           R   N=          45
  4.79017508E-02 -1.32241368E-02  2.28257975E-02 -1.15772618E-02  1.50596182E-02
 -1.24575641E-02 -2.92983030E-02  8.76925054E-03 -1.84494939E-02  5.72145889E-03
 -5.76511837E-02  4.71969798E-02  1.18611559E-02 -1.65280996E-02 -1.43863922E-02
 -9.25070635E-03  2.26308777E-02 -1.64920865E-02 -2.23831677E-02 -2.87378804E-02
  1.66790351E-02  1.40911993E-02  1.62415594E-02 -1.58355842E-02 -5.01010757E-03
  9.81507886E-03 -1.48240127E-02 -1.70904352E-03  2.31398638E-03 -9.94710876E-03
 -1.08612316E-02  1.23662648E-02  7.75991328E-03  1.36463533E-02  3.17914418E-03
  1.12784563E-02  2.86556471E-03  1.02285200E-02  6.76679474E-03 -4.14749720E-03
  2.13722678E-02 -7.24530353E-03 -1.85016417E-03 -5.83526735E-03 -2.86943090E-03
Current cartesian coordinates              R   N=          45
  2.51179432E+00  5.50795178E-01  3.66261240E-01  2.62823650E+00  2.76706124E+00
 -5.62074666E-01  4.25187113E+00 -4.61349309E-01  1.64907790E+00  5.84427786E-02
 -1.16526344E+00 -3.30055220E-01 -1.26150921E-01 -1.38152916E+00 -3.27311386E+00
  1.92190024E-01 -3.53837872E+00  6.70385109E-01 -2.35748468E+00  2.17876879E-01
  6.08291369E-01 -3.94376117E+00 -8.09902577E-01  1.97894323E+00 -2.85335757E+00
  2.91776234E+00 -1.94429652E-01 -1.89721313E+00  3.33043031E+00 -1.97298740E+00
 -1.79237648E+00  4.11872215E+00  1.11361589E+00 -4.90228057E+00  3.28867425E+00
 -3.37113359E-01 -2.02402295E+00 -1.99771887E+00 -3.90477411E+00  1.10026312E+00
 -3.02319507E+00 -3.65897326E+00  5.00528053E-01  3.21425173E-01 -4.30639881E+00
SCF Energy                                 R     -4.949858499261214E+02
Dipole_Data                                R   N=           3
 -4.86604185E+00  4.25423615E+00 -3.07552319E+00
Quadrupole_Data                            R   N=           6
 -9.37204593E+01 -5.46676116E+00 -8.70810662E+01 -5.04322653E-01  5.97120411E+00
 -7.17511454E+01
Octapole_Data                              R   N=          10
 -1.69725086E+01 -6.41233973E+00 -5.32650638E+00  1.94628086E+01 -2.26526039E+01
  2.06503358E+00  2.70646062E+00  3.11413728E+00  9.34199763E+00  2.47497307E+01
Hexadecapole_Data                          R   N=          15
 -9.58622396E+02  4.42006757E+00 -2.62087856E+02  9.40400030E+00 -6.47365100E+02
 -4.03578648E+00  1.23245698E+01  6.99570370E-01  1.35299510E+01 -2.26620200E+02
  1.75702437E+00 -1.62137746E+02 -5.05459724E+00 -1.02677733E+01 -4.44027916E+02
Cartesian Forces                           R   N=          45
  2.31112153E-02 -3.08576221E-03  9.96940551E-04 -7.81995771E-03  8.08944918E-03
 -4.16389334E-03 -1.15313192E-02  2.62239760E-03 -2.73282115E-03  2.35282843E-03
 -3.79587573E-02  3.08079442E-02  3.50663172E-03 -4.54057713E-03 -8.60799130E-03
 -4.93011483E-03  1.46592268E-02 -1.05311862E-02 -8.32917315E-03 -8.38559330E-03
  3.35790315E-03  3.28754245E-03  5.04778633E-03 -3.47962252E-03  7.21439623E-03
  4.59577485E-03 -1.11998451E-02 -2.24113770E-03 -2.54634464E-04 -4.76809746E-03
 -8.22972940E-03  5.45776383E-03  5.03351783E-03  3.91084961E-03  2.87060362E-03
  6.82449419E-03 -1.00061026E-04  4.97361750E-03  2.56864734E-03  1.70308004E-03
  8.11798164E-03 -3.18706721E-03 -1.90505076E-03 -2.20927702E-03 -9.18923072E-04
Current cartesian coordinates              R   N=          45
  2.54169312E+00  5.09680377E-01  3.24932011E-01  2.48065138E+00  2.77690295E+00
 -5.03923350E-01  4.22394371E+00 -3.92950118E-01  1.72086818E+00  8.13793083E-02
 -1.26424170E+00 -2.92687302E-01 -1.32974080E-01 -1.38662080E+00 -3.26662613E+00
  1.88197927E-01 -3.60330993E+00  6.76126410E-01 -2.32665226E+00  1.89965092E-01
  6.14013171E-01 -3.92517276E+00 -7.71528473E-01  2.00207554E+00 -2.79441887E+00
  2.90847542E+00 -2.39812249E-01 -1.87544998E+00  3.29505254E+00 -2.04811194E+00
 -1.78197268E+00  4.15691376E+00  1.06491026E+00 -4.83767150E+00  3.28745341E+00
 -3.22028579E-01 -2.05268577E+00 -1.95756330E+00 -3.86101395E+00  1.10426400E+00
 -2.96793620E+00 -3.77595759E+00  4.53546902E-01  3.55117321E-01 -4.24611010E+00
SCF Energy                                 R     -4.949906977695003E+02
Dipole_Data                                R   N=           3
 -4.53778222E+00  4.09253882E+00 -3.11561876E+00
Quadrupole_Data                            R   N=           6
 -9.27665317E+01 -5.34080981E+00 -8.74695162E+01 -1.05443687E+00  5.57847644E+00
 -7.22179392E+01
Octapole_Data                              R   N=          10
 -1.39793490E+01 -6.27366459E+00 -5.15961165E+00  2.17118876E+01 -2.32958038E+01
  1.53136696E+00  2.61141940E+00  3.36686736E+00  1.00007303E+01  2.47543271E+01
Hexadecapole_Data                          R   N=          15
 -9.36082068E+02  6.32126423E+00 -2.58872209E+02  9.34030199E+00 -6.55486436E+02
 -9.41451139E+00  1.14477069E+01 -1.44824668E+00  1.33470449E+01 -2.25319546E+02
  1.16837363E+00 -1.64706824E+02 -8.80866632E+00 -1.21130291E+01 -4.50629208E+02
Cartesian Forces                           R   N=          45
 -2.52911107E-03  1.01641283E-02  1.39733387E-02  1.39509677E-03 -6.60795087E-05
 -8.06686313E-03  3.13716573E-03 -4.30523717E-03 -3.43130634E-03  4.42457389E-03
 -2.14202874E-02  1.32315148E-02 -7.96707070E-04 -1.88474819E-03 -6.06288636E-03
 -2.60036807E-03  6.32069219E-03 -5.89818178E-03 -1.60399743E-03  1.15906963E-03
  1.26771251E-03 -6.87314197E-04  1.56105551E-04  1.42426517E-05  5.80948891E-03
  1.93592293E-03 -7.90776565E-03 -2.70156095E-03  7.82823899E-05 -1.69852434E-03
 -5.01454569E-03  2.19079149E-03  2.74176897E-03  2.50011981E-04  1.51438975E-03
  3.67935222E-03 -1.95699370E-04  2.17839284E-03  4.26575334E-04  2.68433877E-03
  2.64394968E-03 -1.83907682E-03 -1.57137216E-03 -6.65372560E-04 -4.29900901E-04
Current cartesian coordinates              R   N=          45
  2.52264553E+00  5.00888727E-01  3.89388897E-01  2.45170984E+00  2.69007318E+00
 -6.49650106E-01  4.29379651E+00 -4.02426562E-01  1.64735584E+00  8.18855373E-02
 -1.35112723E+00 -2.08917952E-01 -1.14630894E-01 -1.35612616E+00 -3.21964689E+00
  1.63371010E-01 -3.66683623E+00  7.03032980E-01 -2.33865734E+00  1.61328908E-01
  6.35646406E-01 -3.97677048E+00 -7.46644133E-01  2.00505812E+00 -2.77160514E+00
  2.89588875E+00 -2.80673099E-01 -1.86511134E+00  3.26300587E+00 -2.10346799E+00
 -1.83948652E+00  4.19451078E+00  1.03935032E+00 -4.81177733E+00  3.27589417E+00
 -3.37713211E-01 -2.04132265E+00 -1.88960077E+00 -3.81802788E+00  1.15229645E+00
 -2.86642030E+00 -3.83754588E+00  4.40335263E-01  4.33001349E-01 -4.11753517E+00
SCF Energy                                 R     -4.949931189275578E+02
Dipole_Data                                R   N=           3
 -4.38727504E+00  4.09528114E+00 -2.83066729E+00
Quadrupole_Data                            R   N=           6
 -9.36034067E+01 -5.06227940E+00 -8.72649073E+01 -4.05200661E-01  5.99528363E+00
 -7.19869097E+01
Octapole_Data                              R   N=          10
 -1.35404848E+01 -5.79984263E+00 -4.12536574E+00  2.46869408E+01 -2.27055519E+01
  1.91340955E+00  2.73198222E+00  3.88729676E+00  1.04959889E+01  2.42980061E+01
Hexadecapole_Data                          R   N=          15
 -9.54279866E+02  9.17380527E+00 -2.58733670E+02  1.25862829E+01 -6.54615543E+02
 -4.12940158E+00  1.46788837E+01  3.95859783E-02  2.02041385E+01 -2.25661979E+02
  1.68652787E+00 -1.63972628E+02 -4.66633053E+00 -6.40310940E+00 -4.42491498E+02
Cartesian Forces                           R   N=          45
 -2.10351269E-03  5.67837518E-03 -1.26057238E-02  2.93588935E-03 -2.73719634E-03
  4.96567538E-03  5.44547474E-03 -2.10467851E-03  7.25585511E-03 -1.72132277E-03
  1.03138080E-03  4.24484787E-03 -1.87883637E-03 -1.84975229E-04 -4.18623072E-03
 -5.38883882E-04 -2.91081280E-03  2.71307608E-04  2.77516778E-03  5.41146666E-03
 -2.49447527E-03 -3.51845733E-03 -2.49059607E-03  3.40174664E-03  3.90932114E-03
 -9.18661186E-05 -3.66865834E-03 -2.78636991E-03  9.66955183E-05  1.44713898E-03
 -1.60922667E-03 -1.55750451E-04  7.49261374E-04 -2.25455882E-03  1.80270262E-04
  9.28035349E-04 -6.56949460E-05 -5.33711465E-04 -4.13720671E-04  2.54377551E-03
 -9.58402153E-04 -4.85309409E-04 -1.13276509E-03 -2.30199343E-04  5.90249818E-04
Current cartesian coordinates              R   N=          45
  2.62850410E+00  4.22425911E-01  4.07659966E-01  2.68700203E+00  2.59704428E+00
 -6.60650192E-01  4.28480541E+00 -5.08795262E-01  1.80948922E+00  1.02573143E-01
 -1.34454663E+00 -2.07886230E-01 -1.07278406E-01 -1.32516962E+00 -3.23738824E+00
  1.23931454E-01 -3.67494504E+00  6.58820546E-01 -2.30227848E+00  2.04289404E-01
  6.74547944E-01 -3.89702251E+00 -6.89344903E-01  2.10888073E+00 -2.84808401E+00
  2.90115086E+00 -3.21968455E-01 -2.06855972E+00  3.24841330E+00 -2.20394644E+00
 -1.92315541E+00  4.27972780E+00  9.22139188E-01 -4.90223353E+00  3.21388732E+00
 -2.66343414E-01 -2.02782053E+00 -1.88286252E+00 -3.82972313E+00  1.19859386E+00
 -2.79159311E+00 -3.89175615E+00  3.97701035E-01  4.85728566E-01 -4.11522096E+00
SCF Energy                                 R     -4.949939676610720E+02
Dipole_Data                                R   N=           3
 -4.74724362E+00  4.23764428E+00 -2.96371050E+00
Quadrupole_Data                            R   N=           6
 -9.38065984E+01 -5.12054891E+00 -8.67008743E+01 -7.26031888E-01  6.05151711E+00
 -7.30438828E+01
Octapole_Data                              R   N=          10
 -2.03070838E+01 -6.52992027E+00 -5.28326012E+00  2.69176001E+01 -2.39785332E+01
  2.60523366E+00  2.57413454E+00  2.16611334E+00  1.09019290E+01  2.21035321E+01
Hexadecapole_Data                          R   N=          15
 -9.70196771E+02  1.39128030E+01 -2.61615826E+02  1.77446761E+01 -6.44436800E+02
 -1.04736495E+01  1.70221482E+01 -1.53350203E+00  2.13509260E+01 -2.34994579E+02
  3.61750599E+00 -1.65083926E+02 -7.94177495E+00 -4.55861529E+00 -4.60820184E+02
Cartesian Forces                           R   N=          45
 -4.17862670E-03  6.46023594E-03 -3.98322705E-03 -1.18912340E-04 -4.40120667E-03
  3.04642111E-03  1.77543547E-03 -6.55499238E-04  1.62952905E-03  1.41695585E-04
  2.46022219E-05 -1.72935966E-03 -1.36946015E-03  1.61898746E-03 -1.07851756E-03
 -2.88767246E-04 -2.45108222E-03  1.63795472E-03  8.57030680E-04  2.45944161E-03
 -3.34982172E-03 -3.79717928E-04 -5.31211088E-04  2.20976836E-03  4.30460041E-03
  1.17579429E-05  2.29811612E-04 -1.02478944E-03 -7.44927793E-04  6.35431210E-04
  3.20194207E-04 -8.13622999E-04  4.48129948E-04 -8.09765378E-04 -5.47629331E-05
 -6.38836512E-04 -9.20292319E-05 -1.27903347E-03  7.18637762E-05  1.10973014E-03
 -4.12429089E-04  6.05282506E-04 -2.46618045E-04  7.68750265E-04  2.65570145E-04
Current cartesian coordinates              R   N=          45
  2.57756179E+00  4.30254239E-01  4.13698515E-01  2.63756169E+00  2.61050802E+00
 -6.24464272E-01  4.22483956E+00 -4.86838564E-01  1.84836936E+00  7.79978355E-02
 -1.36143510E+00 -2.30545612E-01 -1.19821549E-01 -1.33936953E+00 -3.26130459E+00
  1.04688416E-01 -3.70028032E+00  6.50075550E-01 -2.31282637E+00  2.01503589E-01
  6.46713172E-01 -3.87033922E+00 -6.50773347E-01  2.15199596E+00 -2.80800041E+00
  2.90930262E+00 -3.22964673E-01 -2.07175478E+00  3.24387580E+00 -2.21969525E+00
 -1.81198286E+00  4.24432227E+00  9.12270246E-01 -4.85597313E+00  3.27313924E+00
 -2.21330780E-01 -1.98309039E+00 -2.05391444E+00 -3.87239426E+00  1.31088982E+00
 -2.69820382E+00 -3.89996646E+00  2.46928038E-01  5.13319699E-01 -4.12380252E+00
SCF Energy                                 R     -4.949944971025222E+02
Dipole_Data                                R   N=           3
 -4.61958651E+00  4.29980860E+00 -3.14260322E+00
Quadrupole_Data                            R   N=           6
 -9.30118045E+01 -4.99633500E+00 -8.69072014E+01 -6.95424389E-01  5.81867764E+00
 -7.33238670E+01
Octapole_Data                              R   N=          10
 -1.74557189E+01 -6.52705056E+00 -4.62191588E+00  2.78917543E+01 -2.47075175E+01
  2.40105760E+00  2.49972768E+00  2.48966687E+00  1.10407950E+01  2.11669207E+01
Hexadecapole_Data                          R   N=          15
 -9.44870525E+02  1.40375157E+01 -2.58337626E+02  1.73587612E+01 -6.51002973E+02
 -1.06609695E+01  1.53854634E+01 -1.57584820E+00  1.86807510E+01 -2.33340997E+02
  3.68820547E+00 -1.66643792E+02 -7.70246338E+00 -7.00313424E+00 -4.66544900E+02
Cartesian Forces                           R   N=          45
  8.28860969E-04  2.50265631E-03  1.79880869E-03 -7.68441260E-04 -2.23573223E-03
 -2.91276670E-04 -1.27534231E-03 -2.70450384E-04 -1.17820864E-03 -2.58538128E-03
 -3.15942924E-03 -1.10698518E-03  1.18156887E-03 -4.07469216E-04  1.50507957E-04
 -2.03717594E-04  3.37610981E-03 -1.75744350E-03  2.29514343E-03  8.50737698E-04
  3.30374189E-03 -3.61249883E-04  1.15088095E-04 -1.10115428E-03  4.05963863E-04
 -3.01175904E-04  2.68936135E-04 -4.40541382E-04  6.12846192E-05 -3.32015566E-04