
Running Job 1 of 3 ts1070.qcin
qchem ts1070.qcin_22452.0 /tmp/ts1070.qcin/ 1
/programs/x86_64/lib/qchem-4.3.2/bin/mpi/mpirun_qchem -machinefile /var/spool/torque/aux//119434.vali -np 1 /programs/x86_64/lib/qchem-4.3.2/exe/qcprog.exe ts1070.qcin_22452.0 /tmp/ts1070.qcin/

Process 0 of 1 is on bt2600-16.csail.mit.edu - thread support 0
initial socket setup ...start
initial socket setup ...done 
now start server 0 ... 

cmd = ssh thor /programs/x86_64/lib/qchem-4.3.2/bin/get_hostid 1990524307 > /tmp/ts1070.qcin/lic.dat
                  Welcome to Q-Chem
     A Quantum Leap Into The Future Of Chemistry


 Q-Chem 4.3, Q-Chem, Inc., Pleasanton, CA (2015)

 Y. Shao,  Z. Gan,  E. Epifanovsky,  A. T. B. Gilbert,  M. Wormit,  
 J. Kussmann,  A. W. Lange,  A. Behn,  J. Deng,  X. Feng,  D. Ghosh,  
 M. Goldey,  P. R. Horn,  L. D. Jacobson,  I. Kaliman,  R. Z. Khaliullin,  
 T. Kus,  A. Landau,  J. Liu,  E. I. Proynov,  Y. M. Rhee,  R. M. Richard,  
 M. A. Rohrdanz,  R. P. Steele,  E. J. Sundstrom,  H. L. Woodcock III,  
 P. M. Zimmerman,  D. Zuev,  B. Albrecht,  E. Alguire,  B. Austin,  
 S. A. Baeppler,  G. J. O. Beran,  Y. A. Bernard,  E. Berquist,  
 K. Brandhorst,  K. B. Bravaya,  S. T. Brown,  D. Casanova,  C.-M. Chang,  
 Y. Chen,  S. H. Chien,  K. D. Closser,  D. L. Crittenden,  M. Diedenhofen,  
 R. A. DiStasio Jr.,  H. Do,  A. D. Dutoi,  R. G. Edgar,  P.-T. Fang,  
 S. Fatehi,  Q. Feng,  L. Fusti-Molnar,  A. Ghysels,  
 A. Golubeva-Zadorozhnaya,  J. Gomes,  A. Gunina,  M. W. D. Hanson-Heine,  
 P. H. P. Harbach,  A. W. Hauser,  E. G. Hohenstein,  Z. C. Holden,  K. Hui,  
 T.-C. Jagau,  H. Ji,  B. Kaduk,  K. Khistyaev,  Jaehoon Kim,  Jihan Kim,  
 R. A. King,  P. Klunzinger,  D. Kosenkov,  T. Kowalczyk,  C. M. Krauter,  
 K. U. Lao,  A. Laurent,  K. V. Lawler,  S. Lehtola,  S. V. Levchenko,  
 C. Y. Lin,  Y.-S. Lin,  F. Liu,  E. Livshits,  R. C. Lochan,  A. Luenser,  
 P. Manohar,  S. F. Manzer,  S.-P. Mao,  N. Mardirossian,  A. V. Marenich,  
 L. A. Martinez-Martinez,  S. A. Maurer,  N. J. Mayhall,  K. Nanda,  
 C. M. Oana,  R. Olivares-Amaya,  D. P. O'Neill,  J. A. Parkhill,  
 T. M. Perrine,  R. Peverati,  P. A. Pieniazek,  F. Plasser,  A. Prociuk,  
 D. R. Rehn,  E. Rosta,  N. J. Russ,  N. Sergueev,  S. M. Sharada,  
 S. Sharma,  D. W. Small,  A. Sodt,  T. Stauch,  T. Stein,  D. Stuck,  
 Y.-C. Su,  A. J. W. Thom,  T. Tsuchimochi,  L. Vogt,  O. Vydrov,  T. Wang,  
 M. A. Watson,  J. Wenzel,  A. White,  C. F. Williams,  V. Vanovschi,  
 S. Yeganeh,  S. R. Yost,  Z.-Q. You,  I. Y. Zhang,  X. Zhang,  Y. Zhao,  
 B. R. Brooks,  G. K. L. Chan,  D. M. Chipman,  C. J. Cramer,  
 W. A. Goddard III,  M. S. Gordon,  W. J. Hehre,  A. Klamt,  
 H. F. Schaefer III,  M. W. Schmidt,  C. D. Sherrill,  D. G. Truhlar,  
 A. Warshel,  X. Xu,  A. Aspuru-Guzik,  R. Baer,  A. T. Bell,  N. A. Besley,  
 J.-D. Chai,  A. Dreuw,  B. D. Dunietz,  T. R. Furlani,  S. R. Gwaltney,  
 C.-P. Hsu,  Y. Jung,  J. Kong,  D. S. Lambrecht,  W. Liang,  C. Ochsenfeld,  
 V. A. Rassolov,  L. V. Slipchenko,  J. E. Subotnik,  T. Van Voorhis,  
 J. M. Herbert,  A. I. Krylov,  P. M. W. Gill,  M. Head-Gordon

 Contributors to earlier versions of Q-Chem not listed above: 
 R. D. Adamson,  J. Baker,  E. F. C. Byrd,  A. K. Chakraborty,  C.-L. Cheng,  
 H. Dachsel,  R. J. Doerksen,  G. Hawkins,  A. Heyden,  S. Hirata,  
 G. Kedziora,  F. J. Keil,  C. Kelley,  P. P. Korambath,  W. Kurlancheek,  
 A. M. Lee,  M. S. Lee,  D. Liotard,  I. Lotan,  P. E. Maslen,  N. Nair,  
 D. Neuhauser,  R. Olson,  B. Peters,  J. Ritchie,  N. E. Schultz,  
 N. Shenvi,  A. C. Simmonett,  K. S. Thanthiriwatte,  Q. Wu,  W. Zhang

 Please cite Q-Chem as follows:
 Y. Shao et al., Mol. Phys. 113, 184-215 (2015)
 DOI: 10.1080/00268976.2014.952696

 Q-Chem 4.3.0 for Intel X86 Linux

 Parts of Q-Chem use Armadillo 5.200.1 (Boston Tea Smuggler).
 http://arma.sourceforge.net/

 Q-Chem begins on Mon Jun  5 14:49:34 2017  

Host: 
0

     Scratch files written to /tmp/ts1070.qcin//
 Oct1215 13750_ 19228  19214 4150   
 Parallel job on  1  processors
Processing $rem in /programs/x86_64/lib/qchem-4.3.2/config/preferences.
 MEM_TOTAL  2000 

Checking the input file for inconsistencies... 	...done.

--------------------------------------------------------------
User input:
--------------------------------------------------------------
$comment
Title
$end

$molecule
-2 1
C         3.457        -1.191          2.606
O         4.624        -1.367          2.196
O         3.356        -1.467          3.868
C         2.324        -0.624          1.826
C         1.991        -2.130          0.371
O         1.212        -0.374          2.453
C         2.487        -0.175          0.458
O         1.482         0.340         -0.175
C         3.801        -0.002         -0.170
H         3.755         0.068         -1.228
H         4.467        -0.895          0.059
H         4.390         0.859          0.236
H         1.159        -1.859         -0.396
H         1.585        -2.765          1.199
H         2.884        -2.558         -0.118
$end


$solvent
CavityRadius    30
Dielectric     78.39
$end

$molecule
READ
$end

$rem
jobtype          FREQ
exchange         b3lyp
basis            6-31+G(d)
pdb_print 2
SOLVENT_METHOD ONSAGER
NBO TRUE
$end

--------------------------------------------------------------
 ----------------------------------------------------------------
             Standard Nuclear Orientation (Angstroms)
    I     Atom           X                Y                Z
 ----------------------------------------------------------------
    1      C       1.4071707117     0.1873367680     0.0483856985
    2      O       1.5264226845     1.4228113169    -0.0942558307
    3      O       2.5644454366    -0.3900273277     0.1283038574
    4      C       0.1343408255    -0.5606438092     0.2327959392
    5      C      -0.8062286456    -0.3044117237    -1.6501868511
    6      O       0.2033614003    -1.8289521301     0.5135149510
    7      C      -1.1464092919     0.1141703727     0.2952375645
    8      O      -2.2273513750    -0.5719699104     0.4868484328
    9      C      -1.2719060446     1.5680756131     0.4412482384
   10      H      -2.2404649478     1.9319572344     0.2048929620
   11      H      -0.5543961013     2.0976332964    -0.2645804527
   12      H      -0.9631358233     1.9532355221     1.4459326640
   13      H      -1.8672544592    -0.7786068640    -1.7077819189
   14      H      -0.0321654288    -0.9954982806    -2.0707466057
   15      H      -0.7794137404     0.7092201755    -2.0878914705
 ----------------------------------------------------------------
 Molecular Point Group                 C1    NOp =  1
 Largest Abelian Subgroup              C1    NOp =  1
 Nuclear Repulsion Energy =   453.2987557589 hartrees
 There are       35 alpha and       35 beta electrons
 Requested basis set is 6-31+G(d)
 There are 57 shells and 183 basis functions

 Total QAlloc Memory Limit   2000 MB
 Mega-Array Size        61 MB
 MEM_STATIC part        62 MB

                       Distance Matrix (Angstroms)
             C (  1)   O (  2)   O (  3)   C (  4)   C (  5)   O (  6)
   O (  2)  1.249386
   O (  3)  1.295770  2.100811
   C (  4)  1.487810  2.445189  2.438327
   C (  5)  2.833038  3.293248  3.812060  2.120366
   O (  6)  2.393935  3.562842  2.791704  1.300836  2.832861
   C (  7)  2.566527  3.001379  3.748670  1.448998  2.018814  2.375974
   O (  8)  3.738790  4.290414  4.808635  2.375344  2.580329  2.736618
   C (  9)  3.039446  2.852807  4.318529  2.559771  2.845552  3.704245
   H ( 10)  4.046411  3.812894  5.337101  3.442897  3.240324  4.495773
   H ( 11)  2.755889  2.194129  4.008739  2.790731  2.784447  4.074028
   H ( 12)  3.269540  2.975136  4.435184  2.999291  3.835042  4.066333
   H ( 13)  3.839145  4.355084  4.812709  2.796379  1.163595  3.213228
   H ( 14)  2.821615  3.490549  3.456126  2.350134  1.119663  2.725532
   H ( 15)  3.101160  3.130603  4.159478  2.798766  1.104425  3.765034
             C (  7)   O (  8)   C (  9)   H ( 10)   H ( 11)   H ( 12)
   O (  8)  1.294581
   C (  9)  1.466598  2.344088
   H ( 10)  2.123551  2.519786  1.061311
   H ( 11)  2.144295  3.238859  1.137298  1.758034
   H ( 12)  2.177119  2.982406  1.119410  1.781068  1.764589
   H ( 13)  2.308410  2.233556  3.237235  3.338378  3.475512  4.269228
   H ( 14)  2.840913  3.396985  3.797234  4.315683  3.619727  4.682816
   H ( 15)  2.483561  3.219823  2.716013  2.981043  2.302778  3.750899
             H ( 13)   H ( 14)
   H ( 14)  1.883172
   H ( 15)  1.881890  1.861381
 
 A cutoff of  1.0D-11 yielded   1555 shell pairs
 There are     16617 function pairs
 
 -------------------------------------------------------
 OpenMP Integral Computing Module                       
 Release: version 1.0, May 2013, Q-Chem Inc. Pittsburgh 
 -------------------------------------------------------
 Integral Job Info:
 Integral job number is                      11
 Integral operator is                         1
 short-range coefficients                     0
 long-range coefficients              100000000
 Omega coefficients                           0
 if combine SR and LR in K                    0
 Integral screening is                        0
 Integral computing path is                   2
 max size of driver memory is            800000
 size of driver memory is                593474
 size of scratch memory is              2260544
 max col of scratch BK array               1296
 max len of scratch array in speh3          155
 max len of scratch index in speh4           18
 max int batch size is                      520
 min int batch size is                       52
 fixed nKL is                                52
 max L of basis functions is                  2
 order of int derivative is                   0
 number of shells is                         57
 number of basis is                         183
 number of cartesian basis is               183
 number of contracted shell pairs          1555
 number of primitive shell pairs           5394
 maxK2 (contraction) of shell pair           36
 max number of K2 of shell pair               1
 max number of CS2 of shell pair            197
 max number of PS2 of shell pair           1182
 mem total for path MDJ                   45544
 -------------------------------------------------------
 Smallest overlap matrix eigenvalue = 1.30E-05
 Placing solute cavity origin at the center of mass
 Center of Onsager solute cavity (Angst): (   0.049035,  -0.037473,   0.034146)
 Solvent multipole matrices computed through 15th order
 Guess from superposition of atomic densities
 Warning:  Energy on first SCF cycle will be non-variational
 A restricted hybrid HF-DFT SCF calculation will be
 performed using Pulay DIIS extrapolation
 Kirkwood-Onsager solvation model will be applied
 Exchange:     0.2000 Hartree-Fock + 0.0800 Slater + 0.7200 B88
 Correlation:  0.1900 VWN1RPA + 0.8100 LYP
 Using SG-1 standard quadrature grid
 SCF converges when DIIS error is below 1.0E-08
 Kirkwood-Onsager SCRF: 
 Maximum multipole order     = 15
 Solvent dielectric constant = 78.3900
 Cavity radius               = 56.6917 bohr
 Born term (E_born)          = -0.03482849 a.u. = -21.8552 kcal/mol
 CPU 0.00 s  wall 0.00 s
 Inaccurate integrated density:
   Number of electrons =    70
   Numerical integral  =    68.000630603246
   Relative error      =    -2.8562419954 %
 CPU 4.91 s  wall 4.91 s
 ---------------------------------------
  Cycle       Energy         DIIS Error
 ---------------------------------------
    1    -496.2155795165      4.87E-02
 CPU 0.00 s  wall 0.00 s
 CPU 5.30 s  wall 5.30 s
    2    -494.5276735455      1.09E-02
 CPU 0.00 s  wall 0.00 s
 CPU 5.32 s  wall 5.32 s
    3    -490.0824527711      3.10E-02
 CPU 0.00 s  wall 0.00 s
 CPU 5.30 s  wall 5.30 s
    4    -494.8087947949      5.97E-03
 CPU 0.00 s  wall 0.00 s
 CPU 5.26 s  wall 5.26 s
    5    -494.9439054255      2.65E-03
 CPU 0.00 s  wall 0.00 s
 CPU 5.24 s  wall 5.24 s
    6    -494.9628563948      1.45E-03
 CPU 0.00 s  wall 0.00 s
 CPU 5.21 s  wall 5.21 s
    7    -494.9691261148      5.32E-04
 CPU 0.00 s  wall 0.00 s
 CPU 5.17 s  wall 5.17 s
    8    -494.9699352489      2.30E-04
 CPU 0.00 s  wall 0.00 s
 CPU 5.12 s  wall 5.13 s
    9    -494.9701205125      5.17E-05
 CPU 0.00 s  wall 0.00 s
 CPU 5.08 s  wall 5.08 s
   10    -494.9701286908      2.66E-05
 CPU 0.00 s  wall 0.00 s
 CPU 5.02 s  wall 5.02 s
   11    -494.9701306736      9.67E-06
 CPU 0.00 s  wall 0.00 s
 CPU 4.96 s  wall 4.96 s
   12    -494.9701309718      3.70E-06
 CPU 0.00 s  wall 0.00 s
 CPU 4.91 s  wall 4.91 s
   13    -494.9701310261      1.20E-06
 CPU 0.00 s  wall 0.00 s
 CPU 4.79 s  wall 4.79 s
   14    -494.9701310324      2.94E-07
 CPU 0.00 s  wall 0.00 s
 CPU 4.71 s  wall 4.71 s
   15    -494.9701310328      7.81E-08
 CPU 0.00 s  wall 0.00 s
 CPU 4.58 s  wall 4.58 s
   16    -494.9701310320      3.58E-08
 CPU 0.00 s  wall 0.00 s
 CPU 4.40 s  wall 4.40 s
   17    -494.9701310317      7.30E-09 Convergence criterion met
 ---------------------------------------
 SCF time:  CPU 206.20 s  wall 205.76 s
 SCF   energy in the final basis set = -494.9701310317
 Total energy in the final basis set = -494.9701310317
 
 --------------------------------------------------------------
 
                    Orbital Energies (a.u.)
 --------------------------------------------------------------
 
 Alpha MOs
 -- Occupied --
-18.791 -18.786 -18.777 -18.763  -9.957  -9.953  -9.950  -9.909
 -9.901  -0.714  -0.683  -0.647  -0.586  -0.467  -0.404  -0.355
 -0.266  -0.185  -0.155  -0.145  -0.127  -0.118  -0.113  -0.090
 -0.084  -0.075  -0.061  -0.042   0.018   0.044   0.070   0.079
  0.084   0.101   0.119
 -- Virtual --
  0.229   0.235   0.267   0.275   0.282   0.284   0.298   0.301
  0.305   0.316   0.334   0.337   0.341   0.345   0.352   0.365
  0.371   0.388   0.405   0.410   0.415   0.456   0.467   0.469
  0.493   0.499   0.508   0.532   0.540   0.547   0.559   0.567
  0.570   0.578   0.584   0.591   0.598   0.602   0.611   0.627
  0.630   0.637   0.657   0.662   0.669   0.679   0.698   0.722
  0.744   0.793   0.872   0.897   0.927   0.956   0.981   0.984
  1.023   1.053   1.062   1.081   1.133   1.157   1.207   1.213
  1.235   1.243   1.255   1.274   1.311   1.336   1.376   1.403
  1.416   1.451   1.471   1.529   1.546   1.562   1.566   1.585
  1.620   1.662   1.669   1.675   1.677   1.691   1.696   1.710
  1.716   1.756   1.771   1.802   1.823   1.878   1.933   1.995
  2.012   2.026   2.063   2.078   2.099   2.136   2.174   2.194
  2.200   2.218   2.226   2.273   2.284   2.328   2.337   2.367
  2.389   2.404   2.486   2.493   2.522   2.555   2.560   2.567
  2.601   2.629   2.684   2.717   2.752   2.804   2.844   2.900
  2.941   2.987   3.025   3.046   3.212   3.326   3.395   3.457
  3.500   3.597   3.617   4.484   4.517   4.597   4.621   4.739
  4.859   4.923   5.014   5.271
 --------------------------------------------------------------
 
          Ground-State Mulliken Net Atomic Charges

     Atom                 Charge (a.u.)
  ----------------------------------------
      1 C                     0.372433
      2 O                    -0.620810
      3 O                    -0.613666
      4 C                     0.156335
      5 C                    -0.819438
      6 O                    -0.565592
      7 C                     0.223058
      8 O                    -0.577665
      9 C                    -0.722200
     10 H                     0.171438
     11 H                     0.238673
     12 H                     0.171989
     13 H                     0.204529
     14 H                     0.204467
     15 H                     0.176449
  ----------------------------------------
  Sum of atomic charges =    -2.000000

 -----------------------------------------------------------------
                    Cartesian Multipole Moments
 -----------------------------------------------------------------
    Charge (ESU x 10^10)
                -9.6064
    Dipole Moment (Debye)
         X      -3.2091      Y       3.2164      Z      -0.4308
       Tot       4.5639
    Quadrupole Moments (Debye-Ang)
        XX    -107.1275     XY      -5.5756     YY     -81.3827
        XZ       1.2511     YZ       3.8842     ZZ     -67.8702
    Octopole Moments (Debye-Ang^2)
       XXX      -3.7227    XXY       2.9306    XYY      -4.7314
       YYY      -4.7978    XXZ      -3.4024    XYZ       1.2701
       YYZ      -0.8297    XZZ      17.2495    YZZ       0.8551
       ZZZ      37.9647
    Hexadecapole Moments (Debye-Ang^3)
      XXXX   -1196.0769   XXXY      -5.0579   XXYY    -270.4422
      XYYY      -1.8212   YYYY    -561.0450   XXXZ       8.9580
      XXYZ       4.5297   XYYZ       0.3781   YYYZ       3.5686
      XXZZ    -223.1565   XYZZ      -0.7288   YYZZ    -140.0813
      XZZZ     -34.6834   YZZZ      -9.9319   ZZZZ    -390.1445
 -----------------------------------------------------------------

 Begin NBO analysis for the ground state 


 *********************************** NBO 5.0 ***********************************
             N A T U R A L   A T O M I C   O R B I T A L   A N D
          N A T U R A L   B O N D   O R B I T A L   A N A L Y S I S
 *******************************************************************************
  (c) Copyright 1996-2002 Board of Regents of the University of Wisconsin System
      on behalf of the Theoretical Chemistry Institute.  All Rights Reserved.

          Cite this program as:

          NBO 5.0.  E. D. Glendening, J. K. Badenhoop, A. E. Reed,
          J. E. Carpenter, J. A. Bohmann, C. M. Morales, and F. Weinhold
          (Theoretical Chemistry Institute, University of Wisconsin,
          Madison, WI, 2001); http://www.chem.wisc.edu/~nbo5

       /PRINT  / : Print level set to  1
  This is a closed-shell NBO calculation

 Job title: Starting NBO analysis.                                          

 Storage needed:      168297 in NPA,      134749 in NBO (     7716756 available)


 NATURAL POPULATIONS:  Natural atomic orbital occupancies 
                                                          
  NAO Atom No lang   Type(AO)    Occupancy      Energy    
 ---------------------------------------------------------
   1    C  1  s      Cor( 1s)     1.99932      -9.83014
   2    C  1  s      Val( 2s)     0.80164       0.20279
   3    C  1  s      Ryd( 3s)     0.01116       1.24264
   4    C  1  s      Ryd( 4s)     0.00216       2.02619
   5    C  1  s      Ryd( 5s)     0.00022       2.70038
   6    C  1  px     Val( 2p)     0.88303       0.31978
   7    C  1  px     Ryd( 4p)     0.01239       1.15724
   8    C  1  px     Ryd( 3p)     0.00131       0.81694
   9    C  1  py     Val( 2p)     0.77913       0.33414
  10    C  1  py     Ryd( 4p)     0.01841       1.14067
  11    C  1  py     Ryd( 3p)     0.00099       0.64314
  12    C  1  pz     Val( 2p)     0.79695       0.22919
  13    C  1  pz     Ryd( 4p)     0.00243       0.98510
  14    C  1  pz     Ryd( 3p)     0.00039       0.49453
  15    C  1  dxy    Ryd( 3d)     0.00411       2.89301
  16    C  1  dxz    Ryd( 3d)     0.00134       2.35647
  17    C  1  dyz    Ryd( 3d)     0.00255       2.45278
  18    C  1  dx2y2  Ryd( 3d)     0.00378       2.89402
  19    C  1  dz2    Ryd( 3d)     0.00048       2.66119
 
  20    O  2  s      Cor( 1s)     1.99979     -18.52403
  21    O  2  s      Val( 2s)     1.72100      -0.54400
  22    O  2  s      Ryd( 3s)     0.00230       1.00246
  23    O  2  s      Ryd( 4s)     0.00019       2.25774
  24    O  2  s      Ryd( 5s)     0.00011       4.26881
  25    O  2  px     Val( 2p)     1.87965       0.08757
  26    O  2  px     Ryd( 3p)     0.00431       0.93912
  27    O  2  px     Ryd( 4p)     0.00016       1.50795
  28    O  2  py     Val( 2p)     1.58207       0.05208
  29    O  2  py     Ryd( 3p)     0.00130       0.98035
  30    O  2  py     Ryd( 4p)     0.00031       1.70025
  31    O  2  pz     Val( 2p)     1.59615       0.08808
  32    O  2  pz     Ryd( 3p)     0.00273       0.77109
  33    O  2  pz     Ryd( 4p)     0.00008       1.38569
  34    O  2  dxy    Ryd( 3d)     0.00283       2.51668
  35    O  2  dxz    Ryd( 3d)     0.00023       2.18563
  36    O  2  dyz    Ryd( 3d)     0.00286       2.38890
  37    O  2  dx2y2  Ryd( 3d)     0.00334       2.73675
  38    O  2  dz2    Ryd( 3d)     0.00105       2.41151
 
  39    O  3  s      Cor( 1s)     1.99982     -18.52836
  40    O  3  s      Val( 2s)     1.74853      -0.53122
  41    O  3  s      Ryd( 3s)     0.00186       1.21128
  42    O  3  s      Ryd( 4s)     0.00022       2.09336
  43    O  3  s      Ryd( 5s)     0.00005       4.20873
  44    O  3  px     Val( 2p)     1.57912       0.08845
  45    O  3  px     Ryd( 3p)     0.00146       0.93997
  46    O  3  px     Ryd( 4p)     0.00014       1.60557
  47    O  3  py     Val( 2p)     1.86210       0.10285
  48    O  3  py     Ryd( 3p)     0.00316       0.80992
  49    O  3  py     Ryd( 4p)     0.00012       1.55234
  50    O  3  pz     Val( 2p)     1.60324       0.10822
  51    O  3  pz     Ryd( 3p)     0.00239       0.74524
  52    O  3  pz     Ryd( 4p)     0.00002       1.43523
  53    O  3  dxy    Ryd( 3d)     0.00250       2.67336
  54    O  3  dxz    Ryd( 3d)     0.00212       2.34949
  55    O  3  dyz    Ryd( 3d)     0.00042       2.24391
  56    O  3  dx2y2  Ryd( 3d)     0.00253       2.61795
  57    O  3  dz2    Ryd( 3d)     0.00074       2.42315
 
  58    C  4  s      Cor( 1s)     1.99869      -9.81857
  59    C  4  s      Val( 2s)     0.90505       0.12446
  60    C  4  s      Ryd( 4s)     0.00796       1.75780
  61    C  4  s      Ryd( 5s)     0.00087       3.10008
  62    C  4  s      Ryd( 3s)     0.00018       1.16997
  63    C  4  px     Val( 2p)     1.05639       0.24600
  64    C  4  px     Ryd( 4p)     0.00524       1.28583
  65    C  4  px     Ryd( 3p)     0.00088       0.84565
  66    C  4  py     Val( 2p)     0.86744       0.27103
  67    C  4  py     Ryd( 4p)     0.01659       1.24924
  68    C  4  py     Ryd( 3p)     0.00099       0.67719
  69    C  4  pz     Val( 2p)     0.82882       0.20431
  70    C  4  pz     Ryd( 4p)     0.00303       1.05099
  71    C  4  pz     Ryd( 3p)     0.00116       0.58189
  72    C  4  dxy    Ryd( 3d)     0.00348       2.75802
  73    C  4  dxz    Ryd( 3d)     0.00087       2.25298
  74    C  4  dyz    Ryd( 3d)     0.00187       2.39857
  75    C  4  dx2y2  Ryd( 3d)     0.00138       2.79385
  76    C  4  dz2    Ryd( 3d)     0.00104       2.60673
 
  77    C  5  s      Cor( 1s)     1.99949      -9.80413
  78    C  5  s      Val( 2s)     1.26179      -0.05347
  79    C  5  s      Ryd( 3s)     0.01195       0.81227
  80    C  5  s      Ryd( 4s)     0.00070       1.50402
  81    C  5  s      Ryd( 5s)     0.00002       4.19742
  82    C  5  px     Val( 2p)     1.22311       0.18780
  83    C  5  px     Ryd( 3p)     0.00363       0.61076
  84    C  5  px     Ryd( 4p)     0.00036       0.83985
  85    C  5  py     Val( 2p)     1.21420       0.20282
  86    C  5  py     Ryd( 3p)     0.00394       0.59292
  87    C  5  py     Ryd( 4p)     0.00044       0.82934
  88    C  5  pz     Val( 2p)     1.07401       0.17644
  89    C  5  pz     Ryd( 3p)     0.01490       0.61871
  90    C  5  pz     Ryd( 4p)     0.00086       0.85342
  91    C  5  dxy    Ryd( 3d)     0.00106       2.37131
  92    C  5  dxz    Ryd( 3d)     0.00062       2.28765
  93    C  5  dyz    Ryd( 3d)     0.00102       2.25583
  94    C  5  dx2y2  Ryd( 3d)     0.00100       2.35235
  95    C  5  dz2    Ryd( 3d)     0.00066       2.35452
 
  96    O  6  s      Cor( 1s)     1.99982     -18.54477
  97    O  6  s      Val( 2s)     1.72558      -0.54801
  98    O  6  s      Ryd( 3s)     0.00134       1.44646
  99    O  6  s      Ryd( 4s)     0.00018       2.22986
 100    O  6  s      Ryd( 5s)     0.00006       4.08077
 101    O  6  px     Val( 2p)     1.89354       0.08972
 102    O  6  px     Ryd( 3p)     0.00313       1.00433
 103    O  6  px     Ryd( 4p)     0.00017       1.42336
 104    O  6  py     Val( 2p)     1.52226       0.06379
 105    O  6  py     Ryd( 3p)     0.00068       1.17619
 106    O  6  py     Ryd( 4p)     0.00020       1.37337
 107    O  6  pz     Val( 2p)     1.55404       0.09147
 108    O  6  pz     Ryd( 3p)     0.00244       0.94628
 109    O  6  pz     Ryd( 4p)     0.00014       1.31220
 110    O  6  dxy    Ryd( 3d)     0.00217       2.52670
 111    O  6  dxz    Ryd( 3d)     0.00015       2.20596
 112    O  6  dyz    Ryd( 3d)     0.00239       2.44419
 113    O  6  dx2y2  Ryd( 3d)     0.00240       2.73050
 114    O  6  dz2    Ryd( 3d)     0.00090       2.39910
 
 115    C  7  s      Cor( 1s)     1.99898      -9.82039
 116    C  7  s      Val( 2s)     0.86221       0.13023
 117    C  7  s      Ryd( 3s)     0.00558       1.55912
 118    C  7  s      Ryd( 4s)     0.00133       1.87534
 119    C  7  s      Ryd( 5s)     0.00011       3.92622
 120    C  7  px     Val( 2p)     0.93467       0.25821
 121    C  7  px     Ryd( 4p)     0.01357       1.05447
 122    C  7  px     Ryd( 3p)     0.00179       0.68067
 123    C  7  py     Val( 2p)     0.98879       0.23714
 124    C  7  py     Ryd( 4p)     0.01046       1.25440
 125    C  7  py     Ryd( 3p)     0.00111       0.64374
 126    C  7  pz     Val( 2p)     0.82234       0.20115
 127    C  7  pz     Ryd( 4p)     0.00453       1.03051
 128    C  7  pz     Ryd( 3p)     0.00177       0.56327
 129    C  7  dxy    Ryd( 3d)     0.00172       2.75006
 130    C  7  dxz    Ryd( 3d)     0.00199       2.33407
 131    C  7  dyz    Ryd( 3d)     0.00072       2.29200
 132    C  7  dx2y2  Ryd( 3d)     0.00312       2.77795
 133    C  7  dz2    Ryd( 3d)     0.00123       2.59976
 
 134    O  8  s      Cor( 1s)     1.99981     -18.53018
 135    O  8  s      Val( 2s)     1.71654      -0.55098
 136    O  8  s      Ryd( 3s)     0.00079       1.43883
 137    O  8  s      Ryd( 4s)     0.00024       2.45115
 138    O  8  s      Ryd( 5s)     0.00006       3.71530
 139    O  8  px     Val( 2p)     1.62476       0.06278
 140    O  8  px     Ryd( 3p)     0.00215       0.93459
 141    O  8  px     Ryd( 4p)     0.00021       1.57012
 142    O  8  py     Val( 2p)     1.80578       0.07526
 143    O  8  py     Ryd( 3p)     0.00315       0.88646
 144    O  8  py     Ryd( 4p)     0.00023       1.47877
 145    O  8  pz     Val( 2p)     1.64127       0.08488
 146    O  8  pz     Ryd( 3p)     0.00333       0.83604
 147    O  8  pz     Ryd( 4p)     0.00020       1.40020
 148    O  8  dxy    Ryd( 3d)     0.00238       2.69005
 149    O  8  dxz    Ryd( 3d)     0.00169       2.35384
 150    O  8  dyz    Ryd( 3d)     0.00095       2.25092
 151    O  8  dx2y2  Ryd( 3d)     0.00234       2.55889
 152    O  8  dz2    Ryd( 3d)     0.00084       2.40951
 
 153    C  9  s      Cor( 1s)     1.99927      -9.75913
 154    C  9  s      Val( 2s)     1.09553       0.02533
 155    C  9  s      Ryd( 3s)     0.00129       1.13402
 156    C  9  s      Ryd( 4s)     0.00053       1.79340
 157    C  9  s      Ryd( 5s)     0.00003       3.90483
 158    C  9  px     Val( 2p)     1.24039       0.19953
 159    C  9  px     Ryd( 4p)     0.00348       0.81879
 160    C  9  px     Ryd( 3p)     0.00046       0.65947
 161    C  9  py     Val( 2p)     1.13010       0.19177
 162    C  9  py     Ryd( 3p)     0.00159       0.59484
 163    C  9  py     Ryd( 4p)     0.00093       0.64255
 164    C  9  pz     Val( 2p)     1.24314       0.17996
 165    C  9  pz     Ryd( 4p)     0.00242       0.73677
 166    C  9  pz     Ryd( 3p)     0.00054       0.66882
 167    C  9  dxy    Ryd( 3d)     0.00084       2.37328
 168    C  9  dxz    Ryd( 3d)     0.00089       2.29004
 169    C  9  dyz    Ryd( 3d)     0.00074       2.26260
 170    C  9  dx2y2  Ryd( 3d)     0.00109       2.51104
 171    C  9  dz2    Ryd( 3d)     0.00103       2.38380
 
 172    H 10  s      Val( 1s)     0.79234       0.36268
 173    H 10  s      Ryd( 2s)     0.00310       0.99686
 
 174    H 11  s      Val( 1s)     0.73434       0.34494
 175    H 11  s      Ryd( 2s)     0.00170       1.14790
 
 176    H 12  s      Val( 1s)     0.77481       0.31746
 177    H 12  s      Ryd( 2s)     0.00103       1.04395
 
 178    H 13  s      Val( 1s)     0.76735       0.31895
 179    H 13  s      Ryd( 2s)     0.00200       1.09809
 
 180    H 14  s      Val( 1s)     0.76987       0.34909
 181    H 14  s      Ryd( 2s)     0.00205       1.05346
 
 182    H 15  s      Val( 1s)     0.80250       0.34042
 183    H 15  s      Ryd( 2s)     0.00181       1.05502
 
   1 low occupancy (<1.9990e) core orbital  found on  C  4
   1 low occupancy (<1.9990e) core orbital  found on  C  7
 
     Population inversion found on atom  C  1
     Population inversion found on atom  C  4
     Population inversion found on atom  C  7
     Population inversion found on atom  C  9


 Summary of Natural Population Analysis:

                                     Natural Population
             Natural    ---------------------------------------------
  Atom No    Charge        Core      Valence    Rydberg      Total
 --------------------------------------------------------------------
    C  1    0.67822      1.99932     3.26075    0.06172     5.32178
    O  2   -0.80046      1.99979     6.77887    0.02180     8.80046
    O  3   -0.81055      1.99982     6.79299    0.01774     8.81055
    C  4    0.29806      1.99869     3.65769    0.04555     5.70194
    C  5   -0.81375      1.99949     4.77310    0.04116     6.81375
    O  6   -0.71159      1.99982     6.69542    0.01636     8.71159
    C  7    0.34398      1.99898     3.60801    0.04903     5.65602
    O  8   -0.80671      1.99981     6.78835    0.01855     8.80671
    C  9   -0.72428      1.99927     4.70916    0.01585     6.72428
    H 10    0.20456      0.00000     0.79234    0.00310     0.79544
    H 11    0.26395      0.00000     0.73434    0.00170     0.73605
    H 12    0.22416      0.00000     0.77481    0.00103     0.77584
    H 13    0.23065      0.00000     0.76735    0.00200     0.76935
    H 14    0.22808      0.00000     0.76987    0.00205     0.77192
    H 15    0.19569      0.00000     0.80250    0.00181     0.80431
 ====================================================================
 * Total * -2.00000     17.99499    51.70555    0.29945    70.00000

                                 Natural Population      
 --------------------------------------------------------
   Core                      17.99499 ( 99.9722% of  18)
   Valence                   51.70555 ( 99.4338% of  52)
   Natural Minimal Basis     69.70055 ( 99.5722% of  70)
   Natural Rydberg Basis      0.29945 (  0.4278% of  70)
 --------------------------------------------------------

    Atom No         Natural Electron Configuration
 ----------------------------------------------------------------------------
      C  1      [core]2s( 0.80)2p( 2.46)3s( 0.01)3d( 0.01)4p( 0.03)
      O  2      [core]2s( 1.72)2p( 5.06)3p( 0.01)3d( 0.01)
      O  3      [core]2s( 1.75)2p( 5.04)3p( 0.01)3d( 0.01)
      C  4      [core]2s( 0.91)2p( 2.75)4s( 0.01)3d( 0.01)4p( 0.02)
      C  5      [core]2s( 1.26)2p( 3.51)3s( 0.01)3p( 0.02)
      O  6      [core]2s( 1.73)2p( 4.97)3p( 0.01)3d( 0.01)
      C  7      [core]2s( 0.86)2p( 2.75)3s( 0.01)3d( 0.01)4p( 0.03)
      O  8      [core]2s( 1.72)2p( 5.07)3p( 0.01)3d( 0.01)
      C  9      [core]2s( 1.10)2p( 3.61)4p( 0.01)
      H 10            1s( 0.79)
      H 11            1s( 0.73)
      H 12            1s( 0.77)
      H 13            1s( 0.77)
      H 14            1s( 0.77)
      H 15            1s( 0.80)


 NATURAL BOND ORBITAL ANALYSIS:

                       Occupancies       Lewis Structure    Low   High
           Occ.    -------------------  -----------------   occ   occ
  Cycle   Thresh.   Lewis   Non-Lewis     CR  BD  3C  LP    (L)   (NL)   Dev
 =============================================================================
   1(1)    1.90    67.75110   2.24890      9  17   0   9     5      4    0.43
   2(2)    1.90    68.02386   1.97614      9  16   0  10     3      4    0.45
   3(3)    1.90    67.75110   2.24890      9  17   0   9     5      4    0.43
   4(4)    1.90    67.85358   2.14642      9  17   0   9     3      4    0.42
   5(5)    1.90    67.85358   2.14642      9  17   0   9     3      4    0.42
   6(6)    1.90    66.94836   3.05164      9  18   0   8     3      5    1.43
   7(7)    1.90    67.85358   2.14642      9  17   0   9     3      4    0.42
   8(8)    1.90    67.85358   2.14642      9  17   0   9     3      4    0.42
   9(9)    1.90    66.94836   3.05164      9  18   0   8     3      5    1.43
  10(1)    1.80    68.02609   1.97391      9  16   0  10     2      4    0.45
  11(2)    1.80    68.02592   1.97408      9  16   0  10     2      4    0.43
  12(3)    1.80    68.02609   1.97391      9  16   0  10     2      4    0.45
  13(4)    1.80    68.02592   1.97408      9  16   0  10     2      4    0.43
  14(5)    1.80    68.02609   1.97391      9  16   0  10     2      4    0.45
  15(6)    1.80    68.02592   1.97408      9  16   0  10     2      4    0.43
  16(7)    1.80    68.02609   1.97391      9  16   0  10     2      4    0.45
  17(8)    1.80    68.02592   1.97408      9  16   0  10     2      4    0.43
  18(9)    1.80    68.02609   1.97391      9  16   0  10     2      4    0.45
  19(1)    1.70    68.02609   1.97391      9  16   0  10     2      4    0.45
  20(2)    1.70    68.02592   1.97408      9  16   0  10     2      4    0.43
  21(3)    1.70    68.02609   1.97391      9  16   0  10     2      4    0.45
  22(4)    1.70    68.02592   1.97408      9  16   0  10     2      4    0.43
  23(5)    1.70    68.02609   1.97391      9  16   0  10     2      4    0.45
  24(6)    1.70    68.02592   1.97408      9  16   0  10     2      4    0.43
  25(7)    1.70    68.02609   1.97391      9  16   0  10     2      4    0.45
  26(8)    1.70    68.02592   1.97408      9  16   0  10     2      4    0.43
  27(9)    1.70    68.02609   1.97391      9  16   0  10     2      4    0.45
  28(1)    1.60    68.20252   1.79748      9  16   0  10     0      4    0.43
  29(2)    1.60    68.20252   1.79748      9  16   0  10     0      4    0.43
  30(1)    1.50    67.29762   2.70238      9  14   0  12     0      4    0.50
  31(2)    1.50    67.29762   2.70238      9  14   0  12     0      4    0.50
  32(1)    1.60    68.20252   1.79748      9  16   0  10     0      4    0.43
 -----------------------------------------------------------------------------

 Strongly delocalized structure accepted

           1 low occupancy (<1.9990e) core orbital  found on  C 4
           1 low occupancy (<1.9990e) core orbital  found on  C 7

 --------------------------------------------------------
   Core                     17.99496 ( 99.972% of  18)
   Valence Lewis            50.20756 ( 96.553% of  52)
  ==================       ============================
   Total Lewis              68.20252 ( 97.432% of  70)
  -----------------------------------------------------
   Valence non-Lewis         1.59185 (  2.274% of  70)
   Rydberg non-Lewis         0.20563 (  0.294% of  70)
  ==================       ============================
   Total non-Lewis           1.79748 (  2.568% of  70)
 --------------------------------------------------------


     (Occupancy)   Bond orbital/ Coefficients/ Hybrids
 -------------------------------------------------------------------------------
   1. (1.99543) BD ( 1) C  1- O  2       
               ( 34.61%)   0.5883* C  1 s( 31.50%)p 2.17( 68.33%)d 0.01(  0.17%)
                                        -0.0002  0.5594 -0.0452 -0.0033  0.0040
                                         0.0326  0.0224 -0.0075  0.8079  0.0529
                                        -0.0034 -0.1616 -0.0039 -0.0003  0.0013
                                         0.0002 -0.0105 -0.0372 -0.0146
               ( 65.39%)   0.8086* O  2 s( 38.83%)p 1.57( 60.91%)d 0.01(  0.27%)
                                         0.0000  0.6228 -0.0172 -0.0012 -0.0060
                                        -0.1463 -0.0019  0.0020 -0.7659  0.0218
                                         0.0016  0.0241 -0.0021  0.0003  0.0149
                                        -0.0011 -0.0068 -0.0427 -0.0237
   2. (1.98008) BD ( 2) C  1- O  2       
               ( 24.40%)   0.4940* C  1 s(  0.05%)p99.99( 99.63%)d 6.16(  0.32%)
                                        -0.0001  0.0220 -0.0025  0.0039  0.0033
                                         0.0231  0.0004 -0.0021  0.1797  0.0007
                                        -0.0025  0.9809 -0.0352  0.0044  0.0000
                                        -0.0059  0.0542 -0.0095 -0.0109
               ( 75.60%)   0.8695* O  2 s(  0.18%)p99.99( 99.62%)d 1.08(  0.20%)
                                         0.0000  0.0427 -0.0011 -0.0001 -0.0001
                                         0.0070 -0.0019  0.0013  0.0648 -0.0004
                                         0.0008  0.9960 -0.0057 -0.0025 -0.0007
                                        -0.0094 -0.0427  0.0017  0.0073
   3. (1.99412) BD ( 1) C  1- O  3       
               ( 35.56%)   0.5963* C  1 s( 31.27%)p 2.19( 68.58%)d 0.00(  0.15%)
                                        -0.0001  0.5577 -0.0402 -0.0082  0.0047
                                         0.7166  0.0535 -0.0092 -0.4088 -0.0068
                                        -0.0025  0.0454  0.0003 -0.0003 -0.0312
                                         0.0040 -0.0011  0.0171 -0.0148
               ( 64.44%)   0.8027* O  3 s( 34.44%)p 1.90( 65.34%)d 0.01(  0.22%)
                                         0.0000  0.5866 -0.0187 -0.0011 -0.0040
                                        -0.7537  0.0207  0.0009  0.2869 -0.0115
                                        -0.0021 -0.0487  0.0019  0.0003 -0.0303
                                         0.0047 -0.0011  0.0287 -0.0205
   4. (1.98339) BD ( 1) C  1- C  4       
               ( 47.94%)   0.6924* C  1 s( 37.40%)p 1.67( 62.52%)d 0.00(  0.07%)
                                        -0.0002 -0.6094 -0.0510 -0.0026  0.0050
                                         0.6912 -0.0174 -0.0162  0.3764  0.0028
                                        -0.0055 -0.0719 -0.0031 -0.0001 -0.0217
                                         0.0049  0.0003 -0.0148  0.0059
               ( 52.06%)   0.7215* C  4 s( 33.85%)p 1.95( 66.08%)d 0.00(  0.07%)
                                         0.0003 -0.5815  0.0166  0.0001  0.0024
                                        -0.6971  0.0027  0.0025 -0.3957  0.0189
                                         0.0033  0.1333 -0.0057  0.0008 -0.0221
                                         0.0068  0.0019 -0.0084  0.0116
   5. (1.99007) BD ( 1) C  4- O  6       
               ( 36.97%)   0.6080* C  4 s( 29.91%)p 2.34( 69.97%)d 0.00(  0.12%)
                                         0.0003 -0.5432 -0.0632  0.0035 -0.0053
                                        -0.0392 -0.0169  0.0002  0.8211  0.0646
                                         0.0015 -0.1379 -0.0236  0.0012  0.0022
                                        -0.0007  0.0104  0.0290  0.0156
               ( 63.03%)   0.7939* O  6 s( 35.56%)p 1.81( 64.22%)d 0.01(  0.22%)
                                        -0.0001 -0.5960  0.0181 -0.0035  0.0018
                                         0.0522 -0.0001  0.0005 -0.7728  0.0129
                                         0.0050  0.2052 -0.0033 -0.0008  0.0046
                                        -0.0020  0.0185  0.0391  0.0176
   6. (1.97275) BD ( 2) C  4- O  6       
               ( 26.62%)   0.5159* C  4 s(  0.47%)p99.99( 99.29%)d 0.51(  0.24%)
                                         0.0001 -0.0657  0.0171  0.0092  0.0025
                                         0.1692 -0.0104 -0.0011  0.1279 -0.0042
                                         0.0058  0.9722 -0.0437  0.0256 -0.0064
                                         0.0068 -0.0431  0.0083  0.0193
               ( 73.38%)   0.8566* O  6 s(  0.19%)p99.99( 99.65%)d 0.84(  0.16%)
                                         0.0000  0.0437 -0.0013 -0.0012 -0.0002
                                         0.1682 -0.0040 -0.0005  0.2315  0.0002
                                         0.0006  0.9563 -0.0080  0.0025  0.0058
                                        -0.0032  0.0351 -0.0105 -0.0148
   7. (1.97312) BD ( 1) C  4- C  7       
               ( 49.46%)   0.7033* C  4 s( 35.80%)p 1.79( 64.13%)d 0.00(  0.07%)
                                        -0.0001  0.5981 -0.0172  0.0021 -0.0027
                                        -0.6946 -0.0024  0.0060  0.3815 -0.0137
                                        -0.0062  0.1125  0.0185  0.0040 -0.0199
                                        -0.0019  0.0066  0.0099 -0.0136
               ( 50.54%)   0.7109* C  7 s( 33.27%)p 2.00( 66.65%)d 0.00(  0.07%)
                                         0.0001  0.5764 -0.0214  0.0035 -0.0042
                                         0.7207 -0.0102 -0.0105 -0.3718 -0.0025
                                         0.0075  0.0915  0.0168  0.0058 -0.0173
                                         0.0007  0.0024  0.0162 -0.0126
   8. (1.64521) BD ( 1) C  5- C  7       
               ( 62.74%)   0.7921* C  5 s( 22.42%)p 3.46( 77.57%)d 0.00(  0.01%)
                                         0.0016  0.4699 -0.0580  0.0028  0.0019
                                         0.0822 -0.0298  0.0009  0.1464 -0.0136
                                        -0.0104  0.8612 -0.0678 -0.0076  0.0002
                                         0.0026  0.0047  0.0010  0.0100
               ( 37.26%)   0.6104* C  7 s(  3.54%)p27.25( 96.35%)d 0.03(  0.12%)
                                         0.0001  0.1869 -0.0063 -0.0192  0.0011
                                        -0.0500 -0.0176 -0.0061 -0.0464  0.0133
                                        -0.0019 -0.9783  0.0229  0.0264 -0.0040
                                        -0.0217  0.0098 -0.0041  0.0243
   9. (1.98274) BD ( 1) C  5- H 13       
               ( 61.50%)   0.7842* C  5 s( 23.10%)p 3.32( 76.81%)d 0.00(  0.09%)
                                         0.0001 -0.4799 -0.0261 -0.0075 -0.0002
                                         0.7895  0.0127 -0.0036  0.3591  0.0144
                                         0.0022  0.1236 -0.0089  0.0082 -0.0186
                                        -0.0061 -0.0032 -0.0168  0.0154
               ( 38.50%)   0.6205* H 13 s(100.00%)
                                        -1.0000 -0.0048
  10. (1.98650) BD ( 1) C  5- H 14       
               ( 61.64%)   0.7851* C  5 s( 30.09%)p 2.32( 69.81%)d 0.00(  0.10%)
                                         0.0001  0.5483  0.0152 -0.0070 -0.0002
                                         0.6062  0.0199 -0.0049 -0.5069 -0.0195
                                         0.0000 -0.2698 -0.0039 -0.0091 -0.0222
                                        -0.0156  0.0134  0.0030 -0.0069
               ( 38.36%)   0.6194* H 14 s(100.00%)
                                         1.0000  0.0044
  11. (1.98793) BD ( 1) C  5- H 15       
               ( 59.81%)   0.7734* C  5 s( 24.76%)p 3.03( 75.13%)d 0.00(  0.11%)
                                        -0.0002  0.4966  0.0318 -0.0035 -0.0013
                                         0.0150  0.0134  0.0026  0.7676  0.0396
                                         0.0038 -0.3998 -0.0037 -0.0141  0.0009
                                        -0.0020 -0.0233 -0.0226 -0.0072
               ( 40.19%)   0.6339* H 15 s(100.00%)
                                         1.0000  0.0039
  12. (1.99274) BD ( 1) C  7- O  8       
               ( 36.80%)   0.6066* C  7 s( 28.76%)p 2.47( 71.11%)d 0.00(  0.13%)
                                        -0.0001  0.5345  0.0440 -0.0008  0.0021
                                        -0.6854 -0.0471 -0.0091 -0.4610 -0.0262
                                        -0.0061  0.1594  0.0193  0.0034  0.0277
                                        -0.0073 -0.0045  0.0123 -0.0166
               ( 63.20%)   0.7950* O  8 s( 36.71%)p 1.72( 63.06%)d 0.01(  0.23%)
                                         0.0000  0.6058 -0.0105  0.0074 -0.0029
                                         0.6730 -0.0215 -0.0065  0.4107 -0.0179
                                        -0.0047 -0.0904  0.0006  0.0017  0.0371
                                        -0.0101 -0.0060  0.0179 -0.0204
  13. (1.98801) BD ( 1) C  7- C  9       
               ( 49.63%)   0.7045* C  7 s( 34.35%)p 1.91( 65.58%)d 0.00(  0.06%)
                                        -0.0002  0.5861 -0.0039  0.0001  0.0029
                                        -0.0645 -0.0150  0.0006  0.8033  0.0039
                                        -0.0010  0.0776  0.0111  0.0005 -0.0025
                                         0.0014  0.0033 -0.0217 -0.0122
               ( 50.37%)   0.7097* C  9 s( 30.18%)p 2.31( 69.75%)d 0.00(  0.07%)
                                         0.0002  0.5493 -0.0070 -0.0016 -0.0016
                                         0.0805 -0.0078 -0.0036 -0.8275 -0.0131
                                         0.0049 -0.0771  0.0021  0.0040 -0.0053
                                         0.0005  0.0050 -0.0226 -0.0120
  14. (1.98949) BD ( 1) C  9- H 10       
               ( 60.58%)   0.7783* C  9 s( 25.26%)p 2.95( 74.65%)d 0.00(  0.09%)
                                         0.0001 -0.5026 -0.0030 -0.0058  0.0006
                                         0.8021  0.0057  0.0028 -0.2712 -0.0066
                                        -0.0068  0.1714 -0.0002 -0.0008  0.0149
                                        -0.0115  0.0027 -0.0189  0.0136
               ( 39.42%)   0.6278* H 10 s(100.00%)
                                        -1.0000 -0.0045
  15. (1.97875) BD ( 1) C  9- H 11       
               ( 63.68%)   0.7980* C  9 s( 21.46%)p 3.66( 78.46%)d 0.00(  0.08%)
                                        -0.0001  0.4631  0.0084 -0.0038  0.0005
                                         0.5488 -0.0038 -0.0030  0.4126  0.0010
                                         0.0004 -0.5594  0.0169  0.0003  0.0130
                                        -0.0199 -0.0137  0.0042  0.0038
               ( 36.32%)   0.6027* H 11 s(100.00%)
                                         1.0000  0.0055
  16. (1.97468) BD ( 1) C  9- H 12       
               ( 61.09%)   0.7816* C  9 s( 23.09%)p 3.33( 76.82%)d 0.00(  0.08%)
                                        -0.0002  0.4805  0.0000  0.0025  0.0015
                                         0.2181  0.0024 -0.0048  0.2648  0.0042
                                         0.0056  0.8065 -0.0049  0.0017  0.0031
                                         0.0125  0.0133 -0.0015  0.0217
               ( 38.91%)   0.6238* H 12 s(100.00%)
                                         1.0000  0.0018
  17. (1.99932) CR ( 1) C  1             s(100.00%)p 0.00(  0.00%)
                                         1.0000  0.0001  0.0000  0.0000  0.0000
                                         0.0002  0.0000  0.0000  0.0002  0.0000
                                         0.0000  0.0000  0.0000  0.0000  0.0000
                                         0.0000  0.0000  0.0000  0.0000
  18. (1.99979) CR ( 1) O  2             s(100.00%)p 0.00(  0.00%)
                                         1.0000  0.0003  0.0000  0.0000  0.0000
                                         0.0000  0.0000  0.0000  0.0003  0.0000
                                         0.0000  0.0000  0.0000  0.0000  0.0000
                                         0.0000  0.0000  0.0000  0.0000
  19. (1.99982) CR ( 1) O  3             s(100.00%)p 0.00(  0.00%)
                                         1.0000  0.0003  0.0000  0.0000  0.0000
                                         0.0002  0.0000  0.0000 -0.0001  0.0000
                                         0.0000  0.0000  0.0000  0.0000  0.0000
                                         0.0000  0.0000  0.0000  0.0000
  20. (1.99869) CR ( 1) C  4             s(100.00%)p 0.00(  0.00%)
                                         1.0000  0.0004  0.0000  0.0000  0.0000
                                         0.0002  0.0000  0.0000 -0.0001  0.0000
                                         0.0000 -0.0001  0.0000  0.0000  0.0000
                                         0.0000  0.0000  0.0000  0.0000
  21. (1.99946) CR ( 1) C  5             s(100.00%)p 0.00(  0.00%)
                                         1.0000 -0.0007  0.0001  0.0000  0.0000
                                        -0.0003  0.0000  0.0000 -0.0001  0.0000
                                         0.0000 -0.0015  0.0001  0.0000  0.0000
                                         0.0000  0.0000  0.0000  0.0000
  22. (1.99982) CR ( 1) O  6             s(100.00%)p 0.00(  0.00%)
                                         1.0000  0.0003  0.0000  0.0000  0.0000
                                         0.0000  0.0000  0.0000 -0.0003  0.0000
                                         0.0000  0.0001  0.0000  0.0000  0.0000
                                         0.0000  0.0000  0.0000  0.0000
  23. (1.99898) CR ( 1) C  7             s(100.00%)p 0.00(  0.00%)
                                         1.0000  0.0001  0.0000  0.0000  0.0000
                                        -0.0001  0.0000  0.0000  0.0002  0.0000
                                         0.0000  0.0001  0.0000  0.0000  0.0000
                                         0.0000  0.0000  0.0000  0.0000
  24. (1.99981) CR ( 1) O  8             s(100.00%)p 0.00(  0.00%)
                                         1.0000  0.0003  0.0000  0.0000  0.0000
                                        -0.0003  0.0000  0.0000 -0.0001  0.0000
                                         0.0000  0.0000  0.0000  0.0000  0.0000
                                         0.0000  0.0000  0.0000  0.0000
  25. (1.99927) CR ( 1) C  9             s(100.00%)p 0.00(  0.00%)
                                         1.0000  0.0001  0.0000  0.0000  0.0000
                                         0.0000  0.0000  0.0000  0.0003  0.0000
                                         0.0000  0.0001  0.0000  0.0000  0.0000
                                         0.0000  0.0000  0.0000  0.0000
  26. (1.97680) LP ( 1) O  2             s( 60.99%)p 0.64( 38.98%)d 0.00(  0.03%)
                                        -0.0004  0.7809  0.0095  0.0000  0.0031
                                         0.1192  0.0025 -0.0037  0.6083 -0.0050
                                        -0.0041 -0.0738  0.0007  0.0004 -0.0067
                                         0.0009  0.0036  0.0137  0.0099
  27. (1.89387) LP ( 2) O  2             s(  0.00%)p 1.00( 99.85%)d 0.00(  0.15%)
                                         0.0000  0.0022  0.0018 -0.0001 -0.0004
                                        -0.9812 -0.0100 -0.0059  0.1888 -0.0004
                                         0.0020 -0.0055 -0.0014  0.0007  0.0347
                                        -0.0038  0.0008  0.0156 -0.0010
  28. (1.98288) LP ( 1) O  3             s( 64.81%)p 0.54( 35.17%)d 0.00(  0.02%)
                                        -0.0004  0.8050  0.0081 -0.0003  0.0020
                                         0.5059 -0.0038  0.0034 -0.3068  0.0047
                                        -0.0003  0.0407 -0.0010 -0.0002  0.0101
                                        -0.0013  0.0013 -0.0054  0.0082
  29. (1.91544) LP ( 2) O  3             s(  0.75%)p99.99( 99.13%)d 0.16(  0.12%)
                                         0.0000  0.0863  0.0052  0.0019 -0.0008
                                         0.4160  0.0010 -0.0031  0.8953  0.0109
                                        -0.0014 -0.1288 -0.0002  0.0004 -0.0231
                                         0.0031 -0.0040 -0.0252  0.0001
  30. (1.60060) LP ( 3) O  3             s(  0.01%)p 1.00( 99.84%)d 0.00(  0.15%)
                                         0.0000  0.0071 -0.0008  0.0010  0.0000
                                        -0.0038  0.0003 -0.0001  0.1433  0.0020
                                         0.0007  0.9888  0.0059  0.0015 -0.0052
                                        -0.0358  0.0146 -0.0019 -0.0038
  31. (1.98290) LP ( 1) O  6             s( 64.24%)p 0.56( 35.74%)d 0.00(  0.02%)
                                        -0.0004  0.8015  0.0082 -0.0014  0.0009
                                         0.0166 -0.0004  0.0003 -0.5886  0.0036
                                        -0.0013  0.1030 -0.0010  0.0007  0.0009
                                         0.0005  0.0050  0.0106  0.0086
  32. (1.90782) LP ( 2) O  6             s(  0.01%)p99.99( 99.87%)d10.25(  0.12%)
                                         0.0000  0.0107 -0.0003  0.0007  0.0008
                                         0.9836  0.0072 -0.0004  0.0114 -0.0004
                                         0.0002 -0.1762 -0.0034 -0.0011  0.0328
                                        -0.0076 -0.0057 -0.0032  0.0025
  33. (1.97738) LP ( 1) O  8             s( 63.22%)p 0.58( 36.76%)d 0.00(  0.02%)
                                        -0.0004  0.7951  0.0046 -0.0037  0.0015
                                        -0.5000  0.0060 -0.0007 -0.3369  0.0101
                                         0.0001  0.0624 -0.0015  0.0006 -0.0115
                                         0.0030  0.0021 -0.0039  0.0085
  34. (1.91047) LP ( 2) O  8             s(  0.05%)p99.99( 99.83%)d 2.20(  0.12%)
                                        -0.0001  0.0218  0.0063  0.0034 -0.0003
                                        -0.5262 -0.0087 -0.0025  0.8462  0.0113
                                         0.0012  0.0720  0.0020 -0.0010  0.0130
                                         0.0055 -0.0039 -0.0308 -0.0026
  35. (1.64439) LP ( 3) O  8             s(  0.00%)p 1.00( 99.85%)d 0.00(  0.15%)
                                        -0.0001 -0.0038  0.0021  0.0039  0.0004
                                        -0.1315 -0.0041 -0.0002  0.0025 -0.0008
                                         0.0010 -0.9905 -0.0076 -0.0020 -0.0030
                                        -0.0298 -0.0227 -0.0040  0.0084
  36. (0.01973) RY*( 1) C  1             s(  7.49%)p11.98( 89.76%)d 0.37(  2.75%)
                                         0.0000  0.0214  0.2610 -0.0778  0.0180
                                         0.0144  0.1097  0.0572  0.0643 -0.9283
                                        -0.0006 -0.0052  0.1266  0.0122  0.0135
                                         0.0103  0.0073  0.1646  0.0055
  37. (0.01432) RY*( 2) C  1             s( 29.57%)p 2.09( 61.83%)d 0.29(  8.60%)
                                         0.0000  0.0499  0.5257  0.1051  0.0758
                                         0.0683 -0.7722  0.0803  0.0135  0.0814
                                         0.0603 -0.0051  0.0120 -0.0162  0.2625
                                        -0.0584  0.0446  0.1079  0.0060
  38. (0.00696) RY*( 3) C  1             s( 25.47%)p 1.09( 27.72%)d 1.84( 46.81%)
                                         0.0000 -0.0122 -0.1199  0.4898 -0.0173
                                         0.0177  0.2969  0.3418  0.0135  0.0568
                                         0.2607 -0.0004  0.0071 -0.0224  0.5636
                                        -0.0580  0.0261  0.3719  0.0898
  39. (0.00549) RY*( 4) C  1             s(  1.54%)p 4.68(  7.19%)d59.43( 91.27%)
                                         0.0000 -0.0046  0.0797  0.0839  0.0441
                                         0.0010  0.1143 -0.0276 -0.0029  0.0272
                                        -0.0875 -0.0447  0.1433 -0.1648 -0.0617
                                        -0.4579  0.8137 -0.0995 -0.1649
  40. (0.00288) RY*( 5) C  1             s( 10.59%)p 1.95( 20.70%)d 6.49( 68.70%)
                                         0.0000 -0.0088  0.3230 -0.0329 -0.0215
                                        -0.0036  0.1659 -0.1582  0.0366  0.2098
                                         0.3268 -0.0016 -0.0376 -0.0298 -0.4994
                                         0.0308  0.0293  0.6599 -0.0191
  41. (0.00192) RY*( 6) C  1             s( 45.25%)p 0.75( 34.09%)d 0.46( 20.65%)
                                         0.0000 -0.0151  0.6334  0.2167 -0.0644
                                         0.0340  0.4174 -0.0850  0.0091  0.1840
                                        -0.1922  0.0220  0.2935 -0.0286  0.0439
                                        -0.0870 -0.2935 -0.3222  0.0844
  42. (0.00091) RY*( 7) C  1             s(  9.54%)p 6.91( 65.96%)d 2.57( 24.50%)
                                         0.0000 -0.0026  0.2844  0.1204 -0.0045
                                         0.0117  0.1767 -0.0798 -0.0018 -0.0341
                                        -0.0899 -0.0431 -0.7687  0.1411  0.0932
                                         0.3721  0.2783 -0.1390 -0.0328
  43. (0.00042) RY*( 8) C  1             s(  8.48%)p 7.09( 60.15%)d 3.70( 31.37%)
                                         0.0000  0.0056 -0.1023  0.2691  0.0439
                                        -0.0093 -0.0677 -0.4340 -0.0045 -0.1496
                                        -0.0044  0.0014 -0.3902 -0.4836 -0.0062
                                        -0.4687 -0.3005  0.0160  0.0581
  44. (0.00029) RY*( 9) C  1             s( 52.16%)p 0.65( 34.00%)d 0.27( 13.84%)
                                         0.0000  0.0163 -0.1731  0.6725 -0.1979
                                        -0.0159 -0.1959 -0.2913  0.0003 -0.1033
                                        -0.2695  0.0000  0.2079  0.2999 -0.2552
                                         0.2091  0.1052  0.0787  0.1110
  45. (0.00012) RY*(10) C  1             s(  7.99%)p 8.89( 71.02%)d 2.63( 20.99%)
                                         0.0000 -0.0017 -0.0253  0.0491  0.2771
                                        -0.0044  0.0227 -0.5235 -0.0124 -0.0449
                                         0.6150  0.0024  0.2337 -0.0230  0.1950
                                         0.2864  0.1055 -0.2584 -0.1093
  46. (0.00004) RY*(11) C  1             s(  5.78%)p 9.61( 55.52%)d 6.70( 38.70%)
  47. (0.00002) RY*(12) C  1             s(  8.16%)p 6.20( 50.60%)d 5.05( 41.24%)
  48. (0.00002) RY*(13) C  1             s( 86.88%)p 0.11(  9.45%)d 0.04(  3.68%)
  49. (0.00002) RY*(14) C  1             s(  0.87%)p14.82( 12.94%)d98.74( 86.19%)
  50. (0.00485) RY*( 1) O  2             s( 15.00%)p 5.64( 84.55%)d 0.03(  0.46%)
                                         0.0000  0.0029  0.3863 -0.0035 -0.0270
                                        -0.0089  0.9019  0.0064 -0.0134 -0.1695
                                        -0.0394  0.0032  0.0373 -0.0073  0.0401
                                        -0.0091  0.0043  0.0527 -0.0098
  51. (0.00296) RY*( 2) O  2             s(  0.36%)p99.99( 97.43%)d 6.13(  2.21%)
                                         0.0000  0.0000  0.0463  0.0377 -0.0058
                                        -0.0005 -0.0381 -0.0097  0.0006  0.1228
                                         0.0042  0.0106  0.9783  0.0231  0.0042
                                        -0.0754  0.1252 -0.0093 -0.0245
  52. (0.00130) RY*( 3) O  2             s( 69.38%)p 0.43( 29.78%)d 0.01(  0.84%)
                                         0.0000 -0.0007  0.8182 -0.0926 -0.1253
                                        -0.0001 -0.2723  0.0688 -0.0089  0.4396
                                        -0.1198  0.0002 -0.0994  0.0367 -0.0772
                                         0.0009 -0.0046  0.0444  0.0205
  53. (0.00077) RY*( 4) O  2             s( 26.67%)p 2.27( 60.63%)d 0.48( 12.70%)
                                         0.0000  0.0050  0.3591  0.3683 -0.0453
                                         0.0135 -0.2470  0.0133 -0.0085 -0.5476
                                         0.4941 -0.0009  0.0236 -0.0179  0.3434
                                        -0.0282 -0.0199 -0.0854 -0.0241
  54. (0.00012) RY*( 5) O  2             s( 44.49%)p 0.91( 40.71%)d 0.33( 14.80%)
                                         0.0000  0.0005 -0.0367  0.6615  0.0775
                                         0.0063  0.0125  0.1089 -0.0066  0.1465
                                        -0.4502 -0.0027 -0.0311 -0.4121  0.2375
                                        -0.0943  0.0159  0.0777  0.2764
  55. (0.00010) RY*( 6) O  2             s( 10.43%)p 6.83( 71.20%)d 1.76( 18.37%)
                                         0.0000  0.0119  0.0879 -0.2062  0.2322
                                        -0.0024 -0.1596  0.3885 -0.0329 -0.4790
                                        -0.4307  0.0053  0.0456  0.3427  0.0010
                                        -0.0380  0.1357  0.3174  0.2511
  56. (0.00008) RY*( 7) O  2             s( 15.21%)p 2.83( 43.05%)d 2.74( 41.74%)
  57. (0.00006) RY*( 8) O  2             s( 19.05%)p 3.50( 66.63%)d 0.75( 14.32%)
  58. (0.00002) RY*( 9) O  2             s( 18.07%)p 1.29( 23.37%)d 3.24( 58.56%)
  59. (0.00002) RY*(10) O  2             s(  6.89%)p 0.39(  2.66%)d13.12( 90.44%)
  60. (0.00002) RY*(11) O  2             s(  1.80%)p21.01( 37.80%)d33.58( 60.40%)
  61. (0.00002) RY*(12) O  2             s(  8.76%)p 2.59( 22.66%)d 7.83( 68.58%)
  62. (0.00001) RY*(13) O  2             s( 63.28%)p 0.20( 12.45%)d 0.38( 24.27%)
  63. (0.00000) RY*(14) O  2             s(  0.61%)p12.67(  7.72%)d99.99( 91.68%)
  64. (0.00376) RY*( 1) O  3             s( 20.28%)p 3.91( 79.27%)d 0.02(  0.45%)
                                         0.0000  0.0008  0.4474 -0.0077 -0.0506
                                        -0.0164  0.3106 -0.0311 -0.0034  0.8329
                                        -0.0241 -0.0007  0.0267  0.0020  0.0488
                                        -0.0003  0.0012  0.0418  0.0193
  65. (0.00237) RY*( 2) O  3             s(  0.23%)p99.99( 98.30%)d 6.35(  1.47%)
                                         0.0000  0.0000  0.0430 -0.0186 -0.0106
                                        -0.0018  0.0561 -0.0183  0.0008 -0.0132
                                        -0.0244  0.0023 -0.9888  0.0325 -0.0022
                                        -0.0480  0.1066 -0.0165 -0.0269
  66. (0.00095) RY*( 3) O  3             s( 24.61%)p 2.88( 70.78%)d 0.19(  4.61%)
                                         0.0000  0.0078  0.3153  0.3829 -0.0022
                                        -0.0152 -0.7824 -0.1792  0.0091  0.1153
                                         0.2192 -0.0012 -0.0427 -0.0101  0.0154
                                         0.0036  0.0228  0.2125 -0.0129
  67. (0.00063) RY*( 4) O  3             s( 68.60%)p 0.34( 23.63%)d 0.11(  7.77%)
                                         0.0000  0.0026  0.7961 -0.2213 -0.0571
                                        -0.0154  0.0140  0.0441 -0.0016 -0.4289
                                        -0.2177  0.0026  0.0484  0.0172 -0.1382
                                         0.0398 -0.0144 -0.2098  0.1128
  68. (0.00013) RY*( 5) O  3             s( 15.34%)p 4.29( 65.85%)d 1.23( 18.81%)
                                         0.0000  0.0054 -0.0122  0.3853 -0.0696
                                        -0.0173 -0.1263  0.6740  0.0115  0.0538
                                        -0.4044  0.0004 -0.0214  0.1447  0.3685
                                        -0.0234 -0.1028 -0.1973  0.0474
  69. (0.00007) RY*( 6) O  3             s( 21.86%)p 0.92( 20.10%)d 2.65( 58.04%)
  70. (0.00002) RY*( 7) O  3             s(  3.72%)p 1.02(  3.78%)d24.85( 92.50%)
  71. (0.00002) RY*( 8) O  3             s( 10.92%)p 7.35( 80.25%)d 0.81(  8.84%)
  72. (0.00003) RY*( 9) O  3             s( 25.75%)p 0.31(  8.09%)d 2.57( 66.17%)
  73. (0.00001) RY*(10) O  3             s(  2.47%)p 7.50( 18.52%)d31.98( 79.01%)
  74. (0.00000) RY*(11) O  3             s(  0.83%)p 5.26(  4.37%)d99.99( 94.80%)
  75. (0.00000) RY*(12) O  3             s( 74.36%)p 0.14( 10.77%)d 0.20( 14.88%)
  76. (0.00000) RY*(13) O  3             s( 29.95%)p 0.62( 18.52%)d 1.72( 51.53%)
  77. (0.00001) RY*(14) O  3             s(  1.07%)p91.97( 98.30%)d 0.59(  0.63%)
  78. (0.01578) RY*( 1) C  4             s( 15.29%)p 5.46( 83.45%)d 0.08(  1.26%)
                                         0.0000 -0.0565  0.3863  0.0225  0.0056
                                        -0.0081  0.1724 -0.0620  0.0637 -0.8778
                                        -0.0455 -0.0212  0.1287  0.0849  0.0159
                                         0.0415 -0.0818  0.0286  0.0559
  79. (0.00639) RY*( 2) C  4             s(  6.07%)p 8.36( 50.79%)d 7.10( 43.14%)
                                         0.0000  0.0282  0.2136 -0.1182 -0.0185
                                        -0.0178  0.4117 -0.0850  0.0034  0.2338
                                         0.0927 -0.0498 -0.3758  0.3520  0.1370
                                         0.1940 -0.5251  0.0571  0.3098
  80. (0.00559) RY*( 3) C  4             s(  3.28%)p18.25( 59.84%)d11.25( 36.88%)
                                         0.0000  0.0100  0.1673  0.0562 -0.0391
                                         0.0070 -0.6915  0.1475 -0.0091 -0.0103
                                        -0.1957 -0.0387 -0.0874  0.2254 -0.4361
                                         0.2336 -0.2326  0.1968  0.1767
  81. (0.00308) RY*( 4) C  4             s( 20.67%)p 1.52( 31.46%)d 2.32( 47.87%)
                                         0.0000 -0.0041  0.4454 -0.0369 -0.0829
                                         0.0255  0.4201  0.1567  0.0312  0.2567
                                        -0.0285  0.0080  0.2004 -0.0709 -0.6375
                                         0.1055  0.2139 -0.0529 -0.1122
  82. (0.00226) RY*( 5) C  4             s( 41.10%)p 0.67( 27.67%)d 0.76( 31.23%)
                                         0.0000 -0.0022  0.6060  0.1408 -0.1548
                                        -0.0107 -0.1689 -0.0661  0.0199  0.2921
                                        -0.3122  0.0066  0.2412  0.0485  0.5112
                                        -0.1677  0.0787  0.1117 -0.0645
  83. (0.00119) RY*( 6) C  4             s( 33.22%)p 1.54( 51.22%)d 0.47( 15.55%)
                                         0.0000  0.0004 -0.2666  0.5101 -0.0314
                                         0.0041  0.3018  0.5461 -0.0265 -0.0375
                                        -0.3445  0.0030  0.0280  0.0364  0.0721
                                         0.0178 -0.0230  0.3737  0.0993
  84. (0.00090) RY*( 7) C  4             s( 12.63%)p 6.34( 80.11%)d 0.57(  7.25%)
                                         0.0000  0.0144  0.3210  0.1480  0.0345
                                        -0.0110 -0.0841  0.2265  0.0085 -0.0701
                                         0.1885 -0.0191 -0.7495 -0.3742  0.0508
                                        -0.0897  0.2373  0.0508 -0.0550
  85. (0.00058) RY*( 8) C  4             s( 29.92%)p 1.09( 32.63%)d 1.25( 37.45%)
                                         0.0000 -0.0024  0.1167  0.5223  0.1133
                                        -0.0023 -0.1117  0.2500  0.0241  0.0529
                                         0.4411 -0.0101  0.2307  0.0052  0.0723
                                         0.0947 -0.2203 -0.5526  0.0800
  86. (0.00041) RY*( 9) C  4             s(  1.47%)p 8.85( 12.97%)d58.35( 85.56%)
                                         0.0000 -0.0010  0.0109  0.1143  0.0386
                                        -0.0010  0.0293 -0.1440  0.0036  0.0131
                                        -0.1873 -0.0125 -0.0171 -0.2691 -0.2726
                                        -0.7468 -0.4470 -0.0765  0.1338
  87. (0.00038) RY*(10) C  4             s( 15.00%)p 3.11( 46.71%)d 2.55( 38.29%)
                                         0.0000  0.0114 -0.0031  0.3868 -0.0145
                                         0.0044  0.0074 -0.3682 -0.0188  0.0282
                                         0.4057 -0.0049  0.0008  0.4071 -0.1525
                                        -0.2724  0.3522  0.3463  0.2036
  88. (0.00017) RY*(11) C  4             s(  6.71%)p 7.94( 53.29%)d 5.96( 39.99%)
                                         0.0000  0.0021 -0.0470  0.1396  0.2132
                                         0.0010  0.0456 -0.1036  0.0078 -0.0240
                                        -0.5052 -0.0055 -0.2941  0.4216 -0.0576
                                        -0.0643  0.2996 -0.5499  0.0168
  89. (0.00013) RY*(12) C  4             s( 22.13%)p 2.37( 52.33%)d 1.15( 25.54%)
                                         0.0000  0.0025 -0.0486  0.4660 -0.0419
                                        -0.0014  0.0594 -0.5946 -0.0029  0.0302
                                        -0.1932 -0.0023 -0.0798 -0.3488 -0.0744
                                         0.4360 -0.1439  0.0471 -0.1921
  90. (0.00006) RY*(13) C  4             s( 59.65%)p 0.18( 10.77%)d 0.50( 29.58%)
  91. (0.00002) RY*(14) C  4             s( 32.83%)p 0.22(  7.28%)d 1.82( 59.90%)
  92. (0.01200) RY*( 1) C  5             s( 36.53%)p 1.70( 62.02%)d 0.04(  1.46%)
                                         0.0000  0.0164  0.6033 -0.0231  0.0233
                                         0.0135  0.2511 -0.0236  0.0060  0.0707
                                         0.0335  0.0938  0.7201 -0.1511 -0.0232
                                        -0.0092 -0.0254  0.0050  0.1152
  93. (0.00141) RY*( 2) C  5             s( 61.56%)p 0.51( 31.69%)d 0.11(  6.74%)
                                         0.0000 -0.0214  0.5511  0.5581  0.0011
                                         0.0089  0.1479 -0.1103 -0.0021 -0.0881
                                         0.0789  0.0100 -0.5062 -0.1119  0.0686
                                         0.2441  0.0211  0.0328 -0.0403
  94. (0.00121) RY*( 3) C  5             s(  2.64%)p35.67( 94.26%)d 1.17(  3.10%)
                                         0.0000 -0.0044  0.1588 -0.0160  0.0308
                                         0.0072 -0.3619  0.1450 -0.0367  0.8204
                                         0.3040  0.0132 -0.1129 -0.1036  0.0227
                                        -0.1372  0.0919 -0.0427 -0.0373
  95. (0.00111) RY*( 4) C  5             s(  7.38%)p11.67( 86.18%)d 0.87(  6.43%)
                                         0.0000  0.0012  0.2107  0.1619 -0.0570
                                         0.0186 -0.8001 -0.1750  0.0251 -0.3859
                                         0.0604 -0.0125  0.1578  0.1120  0.0065
                                        -0.2312  0.0785  0.0602  0.0323
  96. (0.00038) RY*( 5) C  5             s(  3.02%)p27.14( 82.07%)d 4.93( 14.91%)
                                         0.0000 -0.0115  0.0820  0.1498  0.0306
                                        -0.0007 -0.0433  0.6974  0.0047 -0.0781
                                        -0.4961 -0.0091 -0.0780 -0.2721 -0.0306
                                        -0.3184  0.1420  0.0032  0.1631
  97. (0.00018) RY*( 6) C  5             s(  8.98%)p 7.16( 64.26%)d 2.98( 26.76%)
                                         0.0000  0.0090  0.2340 -0.1860 -0.0190
                                        -0.0028  0.0417 -0.1522  0.0032  0.1847
                                        -0.4221  0.0021 -0.1090  0.6273  0.0852
                                         0.0508  0.4416 -0.0230  0.2495
  98. (0.00014) RY*( 7) C  5             s( 23.82%)p 0.81( 19.35%)d 2.39( 56.83%)
                                         0.0000  0.0026 -0.2408  0.4239  0.0240
                                        -0.0199  0.2760 -0.2991  0.0159  0.0600
                                         0.0979  0.0007  0.1110 -0.0405 -0.1901
                                        -0.5311  0.4886 -0.0051 -0.1063
  99. (0.00009) RY*( 8) C  5             s( 38.94%)p 1.05( 40.83%)d 0.52( 20.23%)
 100. (0.00007) RY*( 9) C  5             s(  1.30%)p18.92( 24.64%)d56.86( 74.05%)
 101. (0.00003) RY*(10) C  5             s( 12.58%)p 4.80( 60.31%)d 2.16( 27.12%)
 102. (0.00002) RY*(11) C  5             s(  5.73%)p 1.67(  9.58%)d14.79( 84.69%)
 103. (0.00001) RY*(12) C  5             s(  3.97%)p 1.55(  6.13%)d22.67( 89.90%)
 104. (0.00001) RY*(13) C  5             s(  1.69%)p 8.53( 14.45%)d49.52( 83.86%)
 105. (0.00000) RY*(14) C  5             s( 91.47%)p 0.05(  4.92%)d 0.04(  3.61%)
 106. (0.00345) RY*( 1) O  6             s(  2.45%)p39.47( 96.85%)d 0.29(  0.70%)
                                         0.0000  0.0003  0.1442  0.0595 -0.0144
                                        -0.0063  0.7579 -0.0685  0.0006 -0.1764
                                         0.0010 -0.0031 -0.5984  0.0043 -0.0510
                                        -0.0121  0.0565 -0.0165 -0.0281
 107. (0.00248) RY*( 2) O  6             s(  1.75%)p55.95( 97.82%)d 0.25(  0.43%)
                                         0.0000 -0.0001  0.1295  0.0242 -0.0114
                                        -0.0007 -0.6421  0.0458 -0.0002 -0.2222
                                         0.0130 -0.0106 -0.7159 -0.0402  0.0324
                                        -0.0187  0.0453 -0.0119 -0.0269
 108. (0.00083) RY*( 3) O  6             s( 84.57%)p 0.14( 11.76%)d 0.04(  3.66%)
                                         0.0000  0.0047  0.9148  0.0925 -0.0175
                                        -0.0007 -0.0373 -0.1539  0.0193  0.0998
                                         0.2230 -0.0023  0.1679 -0.0655  0.0186
                                         0.0111  0.0422 -0.0901  0.1621
 109. (0.00037) RY*( 4) O  6             s( 12.56%)p 6.33( 79.55%)d 0.63(  7.89%)
                                         0.0000  0.0000 -0.2122 -0.0689  0.2753
                                        -0.0031 -0.0074 -0.2911 -0.0053  0.6184
                                         0.4685  0.0010 -0.2296 -0.2368  0.0198
                                         0.0060 -0.1189 -0.2536 -0.0067
 110. (0.00024) RY*( 5) O  6             s( 53.01%)p 0.83( 44.03%)d 0.06(  2.95%)
                                         0.0000 -0.0045 -0.1814  0.6889  0.1503
                                        -0.0038 -0.0277 -0.3595 -0.0154 -0.4525
                                         0.1930  0.0057  0.1518 -0.2121  0.1055
                                        -0.0475 -0.0296 -0.1236  0.0020
 111. (0.00010) RY*( 6) O  6             s(  3.20%)p25.70( 82.16%)d 4.58( 14.64%)
 112. (0.00010) RY*( 7) O  6             s(  9.17%)p 9.58( 87.76%)d 0.33(  3.07%)
                                         0.0000 -0.0015 -0.0344 -0.0862  0.2882
                                        -0.0006 -0.0348 -0.2220 -0.0026 -0.1298
                                         0.2334 -0.0029 -0.0012  0.8694  0.0418
                                         0.1002  0.0406 -0.0908  0.0949
 113. (0.00004) RY*( 8) O  6             s( 37.45%)p 1.01( 38.01%)d 0.66( 24.53%)
 114. (0.00001) RY*( 9) O  6             s( 78.20%)p 0.21( 16.09%)d 0.07(  5.71%)
 115. (0.00002) RY*(10) O  6             s(  8.10%)p 1.79( 14.52%)d 9.55( 77.38%)
 116. (0.00002) RY*(11) O  6             s(  0.90%)p 1.01(  0.91%)d99.99( 98.19%)
 117. (0.00002) RY*(12) O  6             s(  2.48%)p 0.95(  2.36%)d38.39( 95.16%)
 118. (0.00001) RY*(13) O  6             s(  1.98%)p12.44( 24.57%)d37.19( 73.46%)
 119. (0.00000) RY*(14) O  6             s(  4.17%)p 0.99(  4.13%)d21.97( 91.70%)
 120. (0.01571) RY*( 1) C  7             s( 14.05%)p 6.04( 84.94%)d 0.07(  1.01%)
                                         0.0000 -0.0451  0.3713 -0.0020 -0.0258
                                         0.0450 -0.7468 -0.0860  0.0240 -0.5116
                                        -0.0544 -0.0008  0.1171  0.0575 -0.0330
                                        -0.0330 -0.0043 -0.0763  0.0453
 121. (0.01016) RY*( 2) C  7             s(  1.95%)p42.88( 83.80%)d 7.29( 14.25%)
                                         0.0000  0.0047 -0.0800  0.1145  0.0030
                                        -0.0131  0.4503 -0.2979  0.0151 -0.7102
                                         0.1601 -0.0177  0.1212 -0.0323 -0.1295
                                         0.0556  0.0716  0.3398 -0.0448
 122. (0.00627) RY*( 3) C  7             s(  0.37%)p99.99( 47.61%)d99.99( 52.01%)
                                         0.0000  0.0126  0.0417 -0.0213  0.0370
                                        -0.0027  0.0723 -0.1169  0.0038 -0.0321
                                         0.0371  0.0257 -0.4344  0.5152 -0.1536
                                        -0.5818 -0.1649  0.0574  0.3572
 123. (0.00361) RY*( 4) C  7             s( 15.52%)p 2.62( 40.69%)d 2.82( 43.79%)
                                         0.0000 -0.0062  0.0516  0.3905 -0.0082
                                        -0.0108 -0.3076 -0.2017  0.0151  0.3393
                                         0.3096 -0.0118 -0.1905 -0.1545 -0.2427
                                         0.0614  0.0320  0.6061 -0.0824
 124. (0.00225) RY*( 5) C  7             s(  3.14%)p26.22( 82.35%)d 4.62( 14.51%)
                                         0.0000  0.0272  0.1746  0.0036  0.0131
                                         0.0125  0.0670  0.1956 -0.0047 -0.2405
                                        -0.0432 -0.0405 -0.7764 -0.3413  0.1228
                                         0.1871 -0.2397 -0.0739 -0.1791
 125. (0.00148) RY*( 6) C  7             s( 78.56%)p 0.26( 20.36%)d 0.01(  1.08%)
                                         0.0000  0.0047  0.8766 -0.1298 -0.0198
                                         0.0294  0.3295 -0.1873  0.0098  0.2063
                                        -0.0098 -0.0038  0.1221 -0.0375  0.0557
                                         0.0278  0.0207  0.0582  0.0557
 126. (0.00091) RY*( 7) C  7             s( 44.91%)p 0.94( 42.35%)d 0.28( 12.74%)
                                         0.0000  0.0031  0.1073  0.6611 -0.0228
                                         0.0136  0.0905  0.3702  0.0080 -0.0596
                                        -0.4882 -0.0108  0.1169  0.1495  0.2634
                                        -0.0480 -0.0551  0.2152  0.0797
 127. (0.00055) RY*( 8) C  7             s(  3.76%)p 2.42(  9.08%)d23.17( 87.16%)
                                         0.0000  0.0130  0.0911  0.1470  0.0868
                                        -0.0239  0.0854  0.1943 -0.0180 -0.0033
                                        -0.1880  0.0018 -0.0512  0.0831 -0.8260
                                         0.3084  0.1413 -0.2428  0.1233
 128. (0.00037) RY*( 9) C  7             s(  3.81%)p14.58( 55.53%)d10.68( 40.66%)
                                         0.0000  0.0101  0.0983  0.0032  0.1683
                                         0.0044  0.0068  0.4948 -0.0018 -0.0926
                                         0.5340  0.0066 -0.0695  0.1086  0.2059
                                         0.1134  0.4959  0.0338  0.3230
 129. (0.00026) RY*(10) C  7             s(  1.47%)p22.89( 33.60%)d44.23( 64.93%)
                                         0.0000  0.0028  0.0132  0.1072 -0.0548
                                         0.0002  0.0271 -0.0039 -0.0059 -0.0216
                                        -0.1433  0.0013 -0.0360 -0.5594 -0.1110
                                        -0.6126  0.4925 -0.1375 -0.0162
 130. (0.00016) RY*(11) C  7             s( 32.89%)p 0.82( 26.96%)d 1.22( 40.14%)
                                         0.0000 -0.0035  0.0791  0.5238 -0.2198
                                        -0.0016  0.0814 -0.0826 -0.0116  0.0049
                                         0.4928 -0.0120  0.0807  0.0806  0.0133
                                        -0.1046 -0.1923 -0.5473 -0.2319
 131. (0.00008) RY*(12) C  7             s( 27.88%)p 1.40( 38.93%)d 1.19( 33.19%)
[...]
 O          0.013  0.203 -0.004   -0.001 -0.006  0.314    0.051  0.156  0.038
 C         -0.101 -0.020  0.122   -0.098 -0.131 -0.080   -0.042 -0.067 -0.066
 H         -0.167 -0.175  0.077   -0.151 -0.256 -0.157   -0.146 -0.323 -0.363
 H         -0.208  0.077  0.384   -0.189 -0.051  0.184   -0.231  0.113  0.187
 H         -0.147 -0.199 -0.005   -0.189 -0.303 -0.203   -0.193 -0.096 -0.078
 H         -0.169 -0.183 -0.078    0.162  0.273 -0.165   -0.150 -0.252  0.341
 H         -0.149 -0.207  0.006    0.197  0.302 -0.195   -0.202  0.045 -0.043
 H         -0.209  0.086 -0.394    0.202  0.035  0.193   -0.230  0.178 -0.188
 TransDip  -0.027 -0.023  0.000    0.001  0.002 -0.129   -0.024 -0.061  0.014

 Mode:                13                     14                     15
 Frequency:       537.54                 602.08                 766.02
 Force Cnst:      1.0614                 1.0280                 4.5145
 Red. Mass:       6.2343                 4.8133                13.0579
 IR Active:          YES                    YES                    YES
 IR Intens:        6.076                 14.622                 76.615
 Raman Active:       YES                    YES                    YES
               X      Y      Z        X      Y      Z        X      Y      Z
 C          0.016 -0.033  0.386    0.039 -0.033  0.008   -0.440 -0.340 -0.016
 O         -0.035 -0.038 -0.125   -0.094 -0.062 -0.003    0.380 -0.351 -0.004
 O          0.029 -0.009 -0.134    0.044 -0.050 -0.004   -0.052  0.466  0.010
 C          0.002  0.043  0.338    0.045  0.196  0.009   -0.268  0.042  0.021
 C         -0.015  0.163 -0.165    0.030 -0.157  0.235    0.009 -0.020  0.032
 O          0.023  0.049 -0.087   -0.081  0.208 -0.004    0.109  0.104 -0.004
 C         -0.072  0.014 -0.114    0.148 -0.054  0.001    0.033  0.045  0.011
 O         -0.015 -0.048  0.151   -0.076  0.109  0.001    0.067  0.038  0.001
 C          0.037 -0.134 -0.134    0.032 -0.156 -0.239    0.008 -0.035 -0.047
 H          0.062 -0.070  0.097   -0.010 -0.262 -0.429   -0.022 -0.116 -0.108
 H          0.097 -0.197 -0.067   -0.047 -0.080 -0.206   -0.021 -0.009  0.010
 H          0.101 -0.319 -0.272   -0.047 -0.079 -0.179   -0.021 -0.090 -0.088
 H          0.022  0.256 -0.138   -0.015 -0.267  0.426   -0.031 -0.124  0.112
 H          0.019  0.337 -0.283   -0.051 -0.078  0.174   -0.035 -0.088  0.078
 H          0.039  0.110  0.037   -0.051 -0.079  0.199   -0.036  0.024 -0.055
 TransDip   0.004  0.013  0.078    0.090  0.083  0.005   -0.278 -0.034  0.003

 Mode:                16                     17                     18
 Frequency:       788.08                 811.16                 857.94
 Force Cnst:      1.9314                 1.1972                 0.8901
 Red. Mass:       5.2782                 3.0881                 2.0524
 IR Active:          YES                    YES                    YES
 IR Intens:        4.774                  1.882                 30.627
 Raman Active:       YES                    YES                    YES
               X      Y      Z        X      Y      Z        X      Y      Z
 C         -0.008 -0.013  0.379   -0.011  0.012  0.015    0.001 -0.002  0.130
 O          0.007 -0.008 -0.090    0.006  0.033 -0.003    0.000  0.000 -0.029
 O         -0.002  0.012 -0.090   -0.032 -0.002 -0.003    0.000  0.001 -0.029
 C         -0.001  0.004 -0.321    0.043 -0.071 -0.017    0.000  0.000 -0.147
 C         -0.015 -0.138  0.116   -0.044 -0.058  0.163    0.009  0.113 -0.022
 O          0.000  0.009  0.054    0.030 -0.088  0.004   -0.001  0.002  0.030
 C          0.010 -0.013 -0.208   -0.150  0.248 -0.001    0.001 -0.005  0.165
 O         -0.005  0.000 -0.004    0.116  0.047  0.001   -0.002 -0.002 -0.003
 C          0.017  0.141  0.137   -0.041 -0.051 -0.158   -0.006 -0.110 -0.019
 H         -0.073 -0.069 -0.049    0.022  0.112  0.274    0.044 -0.004 -0.282
 H         -0.142  0.286  0.445    0.101 -0.193 -0.155    0.016 -0.114 -0.399
 H         -0.114 -0.017  0.028    0.134 -0.301 -0.353   -0.057  0.330  0.301
 H          0.067  0.053 -0.013    0.028  0.118 -0.284   -0.040  0.002 -0.273
 H          0.098  0.050 -0.009    0.140 -0.318  0.363    0.049 -0.324  0.285
 H          0.124 -0.272  0.428    0.106 -0.206  0.164   -0.015  0.132 -0.409
 TransDip  -0.010 -0.004 -0.069    0.042  0.011  0.001    0.000  0.000  0.177

 Mode:                19                     20                     21
 Frequency:       937.84                 989.45                1029.83
 Force Cnst:      3.5447                 0.7806                 1.1813
 Red. Mass:       6.8402                 1.3533                 1.8905
 IR Active:          YES                    YES                    YES
 IR Intens:       55.477                  5.165                 58.767
 Raman Active:       YES                    YES                    YES
               X      Y      Z        X      Y      Z        X      Y      Z
 C         -0.139 -0.050 -0.008    0.000 -0.001  0.047    0.008 -0.001  0.001
 O          0.077 -0.057  0.000    0.000  0.000 -0.011   -0.007  0.011  0.000
 O         -0.157  0.099  0.005   -0.001  0.001 -0.009    0.016 -0.010 -0.001
 C          0.625  0.086  0.004    0.003  0.000 -0.076   -0.070 -0.005 -0.002
 C         -0.061 -0.016 -0.036    0.100 -0.018 -0.021   -0.055 -0.085 -0.057
 O         -0.137 -0.032 -0.001   -0.001  0.000  0.014    0.011  0.005  0.000
 C         -0.003 -0.073  0.001    0.000  0.000  0.041   -0.037 -0.055  0.003
 O         -0.081  0.009 -0.001   -0.002 -0.002  0.008    0.117  0.133  0.001
 C         -0.059 -0.019  0.035   -0.098  0.021 -0.023   -0.059 -0.086  0.052
 H          0.048  0.238  0.201    0.021  0.286  0.483    0.057  0.167 -0.031
 H          0.077 -0.128 -0.242    0.146 -0.210 -0.156    0.083 -0.197 -0.451
 H          0.074  0.177  0.171    0.185 -0.137 -0.155    0.044  0.297  0.314
 H          0.049  0.247 -0.214   -0.027 -0.295  0.476    0.053  0.157  0.051
 H          0.081  0.166 -0.154   -0.184  0.136 -0.153    0.040  0.304 -0.311
 H          0.077 -0.137  0.238   -0.146  0.218 -0.165    0.073 -0.198  0.444
 TransDip   0.226 -0.076 -0.001    0.006  0.002  0.073   -0.160 -0.187  0.001

 Mode:                22                     23                     24
 Frequency:      1112.78                1160.75                1244.23
 Force Cnst:      1.8584                 1.7087                 4.4320
 Red. Mass:       2.5472                 2.1525                 4.8590
 IR Active:          YES                    YES                    YES
 IR Intens:       55.869                  8.366                213.097
 Raman Active:       YES                    YES                    YES
               X      Y      Z        X      Y      Z        X      Y      Z
 C          0.000  0.000  0.035   -0.009 -0.007 -0.001    0.003 -0.011  0.000
 O          0.000  0.000 -0.009    0.002  0.005  0.000    0.000  0.015  0.000
 O         -0.001  0.000 -0.007   -0.010  0.001  0.000    0.007 -0.001  0.000
 C          0.001  0.000 -0.066    0.055 -0.005  0.000   -0.072 -0.031  0.000
 C         -0.058 -0.043 -0.102    0.092 -0.072 -0.034   -0.088 -0.063 -0.024
 O         -0.001  0.000  0.015    0.000 -0.016  0.000    0.020 -0.009  0.000
 C          0.000  0.000  0.313   -0.149  0.211 -0.001    0.381  0.315  0.001
 O         -0.001 -0.001 -0.060   -0.010 -0.054  0.000   -0.170 -0.159 -0.002
 C          0.061  0.045 -0.099    0.091 -0.073  0.035   -0.088 -0.064  0.023
 H         -0.068 -0.242 -0.016    0.016 -0.206 -0.449    0.099  0.301  0.133
 H         -0.054  0.118  0.358   -0.152  0.166 -0.031    0.065 -0.173 -0.263
 H         -0.056 -0.320 -0.343   -0.198  0.224  0.255    0.171  0.224  0.192
 H          0.066  0.240 -0.006    0.010 -0.212  0.445    0.097  0.302 -0.127
 H          0.057  0.326 -0.337   -0.195  0.226 -0.253    0.175  0.221 -0.178
 H          0.048 -0.123  0.355   -0.153  0.164  0.032    0.064 -0.181  0.259
 TransDip   0.004  0.001  0.239    0.055  0.075 -0.001    0.307  0.353  0.005

 Mode:                25                     26                     27
 Frequency:      1328.25                1331.85                1352.40
 Force Cnst:      9.0439                 1.2633                 1.3833
 Red. Mass:       8.7005                 1.2087                 1.2836
 IR Active:          YES                    YES                    YES
 IR Intens:      126.450                 24.015                 58.277
 Raman Active:       YES                    YES                    YES
               X      Y      Z        X      Y      Z        X      Y      Z
 C          0.449  0.336  0.001    0.013  0.009  0.000   -0.050 -0.018  0.000
 O          0.009 -0.384 -0.005    0.000 -0.011  0.001    0.000  0.028  0.000
 O         -0.323  0.145  0.004   -0.009  0.004  0.000    0.036 -0.016 -0.001
 C         -0.063 -0.019  0.000   -0.001  0.000 -0.001   -0.005 -0.006  0.000
 C          0.007 -0.053  0.057   -0.014  0.056 -0.078    0.012 -0.052  0.074
 O          0.006 -0.005  0.000    0.000  0.000  0.001    0.001  0.007  0.000
 C         -0.004  0.009  0.000    0.001  0.001 -0.002   -0.010 -0.018  0.000
 O          0.019  0.008  0.000    0.000  0.000  0.001    0.010  0.011  0.000
 C          0.004 -0.033 -0.031    0.014 -0.051 -0.074    0.015 -0.055 -0.082
 H          0.055  0.106  0.109    0.091  0.174  0.318    0.101  0.187  0.345
 H         -0.095  0.066  0.150   -0.183  0.137  0.358   -0.202  0.151  0.390
 H          0.002  0.152  0.107   -0.052  0.307  0.208   -0.057  0.325  0.217
 H          0.093  0.177 -0.217   -0.103 -0.196  0.333    0.098  0.181 -0.305
 H         -0.012  0.263 -0.177    0.051 -0.330  0.216   -0.045  0.298 -0.192
 H         -0.156  0.119 -0.277    0.189 -0.152  0.380   -0.178  0.142 -0.353
 TransDip   0.312  0.180 -0.011    0.031  0.008  0.154   -0.239  0.052  0.008

 Mode:                28                     29                     30
 Frequency:      1482.87                1495.47                1500.58
 Force Cnst:      1.3607                 1.3950                 1.4034
 Red. Mass:       1.0503                 1.0587                 1.0578
 IR Active:          YES                    YES                    YES
 IR Intens:        0.333                 14.302                  1.331
 Raman Active:       YES                    YES                    YES
               X      Y      Z        X      Y      Z        X      Y      Z
 C          0.000  0.000  0.000   -0.017  0.016  0.000   -0.001  0.001  0.000
 O          0.000  0.000 -0.001    0.001 -0.007  0.000    0.000  0.000  0.001
 O          0.000  0.000  0.000    0.011 -0.006  0.000    0.001  0.000  0.000
 C          0.000  0.000 -0.001    0.002  0.004  0.000    0.000  0.000 -0.001
 C         -0.027 -0.029 -0.017   -0.013 -0.029 -0.025   -0.037  0.020  0.021
 O          0.000  0.000  0.000    0.000 -0.003  0.000    0.000  0.000  0.000
 C          0.000 -0.001 -0.018   -0.015 -0.016  0.000   -0.002 -0.001  0.006
 O          0.000  0.000  0.003    0.002  0.003  0.000    0.000  0.000 -0.001
 C          0.027  0.028 -0.014   -0.020 -0.028  0.021    0.033 -0.024  0.024
 H         -0.150 -0.333  0.318    0.167  0.372 -0.305    0.130  0.235  0.091
 H          0.160 -0.110 -0.141   -0.216  0.175  0.088   -0.306  0.321 -0.297
 H         -0.409  0.085  0.078    0.362 -0.137 -0.108   -0.258 -0.217 -0.110
 H          0.151  0.349  0.344    0.169  0.380  0.281   -0.110 -0.190  0.140
 H          0.424 -0.097  0.092    0.295 -0.166  0.122    0.326  0.208 -0.089
 H         -0.169  0.122 -0.139   -0.248  0.212 -0.031    0.290 -0.299 -0.324
 TransDip  -0.003  0.001 -0.018   -0.102  0.066  0.005   -0.004  0.004 -0.037

 Mode:                31                     32                     33
 Frequency:      1516.49                1644.67                1735.09
 Force Cnst:      1.4307                18.1545                23.2953
 Red. Mass:       1.0559                11.3914                13.1332
 IR Active:          YES                    YES                    YES
 IR Intens:        6.478                508.320                273.507
 Raman Active:       YES                    YES                    YES
               X      Y      Z        X      Y      Z        X      Y      Z
 C          0.000 -0.003  0.000   -0.468  0.670  0.011   -0.011  0.015  0.001
 O          0.000  0.002  0.000    0.052 -0.296 -0.004   -0.003 -0.023  0.000
 O         -0.001  0.001  0.000    0.277 -0.179 -0.004    0.027 -0.010  0.000
 C          0.006  0.002  0.000    0.038 -0.041 -0.001   -0.124  0.808 -0.006
 C         -0.035  0.012  0.016   -0.001  0.013 -0.005    0.006 -0.009  0.011
 O          0.000 -0.002  0.000   -0.010 -0.002  0.000    0.073 -0.558  0.004
 C         -0.026  0.011  0.000    0.009  0.030  0.001    0.012 -0.008  0.001
 O          0.004 -0.001  0.000   -0.001 -0.008  0.000   -0.010 -0.010  0.000
 C         -0.037  0.013 -0.018   -0.001  0.013  0.006    0.006 -0.009 -0.011
 H         -0.083 -0.135 -0.215   -0.061 -0.135  0.025    0.017 -0.015  0.051
 H          0.244 -0.276  0.349    0.124 -0.104 -0.095   -0.001 -0.003  0.010
 H          0.385  0.190  0.089   -0.072  0.015  0.007   -0.035  0.043  0.018
 H         -0.079 -0.126  0.208   -0.061 -0.136 -0.029    0.018 -0.014 -0.048
 H          0.373  0.182 -0.074   -0.072  0.016 -0.009   -0.033  0.042 -0.018
 H          0.235 -0.252 -0.335    0.125 -0.107  0.094   -0.002 -0.002 -0.010
 TransDip   0.071 -0.041  0.001   -0.454  0.561  0.013   -0.167  0.503 -0.002

 Mode:                34                     35                     36
 Frequency:      2980.41                2988.26                3038.49
 Force Cnst:      5.4218                 5.4473                 5.9773
 Red. Mass:       1.0360                 1.0354                 1.0988
 IR Active:          YES                    YES                    YES
 IR Intens:       92.661                146.836                 71.709
 Raman Active:       YES                    YES                    YES
               X      Y      Z        X      Y      Z        X      Y      Z
 C          0.000  0.000  0.000    0.000  0.000  0.000    0.000  0.000  0.000
 O          0.000  0.000  0.000    0.000  0.000  0.000    0.000  0.000  0.000
 O          0.000  0.000  0.000    0.000  0.000  0.000    0.000  0.000  0.000
 C          0.000  0.000  0.001    0.002 -0.001  0.000    0.000  0.000  0.000
 C          0.021 -0.015  0.022   -0.021  0.015 -0.025    0.042 -0.035 -0.038
 O          0.000  0.000  0.000    0.000  0.001  0.000    0.000  0.000  0.000
 C          0.000  0.000  0.000   -0.003 -0.001  0.000    0.000  0.000 -0.001
 O          0.000  0.000  0.000    0.001  0.000  0.000    0.000  0.000  0.000
 C         -0.024  0.016  0.023   -0.021  0.015  0.022   -0.038  0.032 -0.036
 H          0.522 -0.230  0.022    0.469 -0.209  0.017    0.359 -0.152  0.001
 H         -0.198 -0.190 -0.003   -0.185 -0.178 -0.001    0.072  0.089 -0.004
 H         -0.035  0.229 -0.294   -0.031  0.215 -0.281    0.025 -0.320  0.433
 H         -0.475  0.206  0.016    0.503 -0.220 -0.014   -0.403  0.167 -0.003
 H          0.038 -0.210 -0.279   -0.041  0.236  0.319   -0.037  0.335  0.470
 H          0.183  0.178  0.004   -0.203 -0.197 -0.006   -0.064 -0.085 -0.008
 TransDip  -0.019  0.009  0.308   -0.333  0.198 -0.017    0.016 -0.010 -0.271

 Mode:                37                     38                     39
 Frequency:      3044.88                3089.30                3096.29
 Force Cnst:      5.9927                 6.1868                 6.2084
 Red. Mass:       1.0971                 1.1003                 1.0991
 IR Active:          YES                    YES                    YES
 IR Intens:      102.624                  2.696                 89.244
 Raman Active:       YES                    YES                    YES
               X      Y      Z        X      Y      Z        X      Y      Z
 C          0.000  0.000  0.000    0.000  0.000  0.000    0.000 -0.001  0.000
 O          0.000  0.000  0.000    0.000  0.000 -0.001   -0.001  0.000  0.000
 O          0.000  0.000  0.000    0.000  0.000  0.000    0.000  0.000  0.000
 C          0.001  0.000  0.000    0.000  0.000  0.000    0.000  0.000  0.000
 C         -0.038  0.033  0.035   -0.047 -0.045 -0.014   -0.045 -0.041 -0.013
 O          0.000  0.000  0.000    0.000  0.000  0.000    0.000  0.000  0.000
 C         -0.003  0.003  0.000    0.000  0.000 -0.002   -0.003 -0.002  0.000
 O          0.001 -0.001  0.000    0.000  0.000  0.001    0.001  0.000  0.000
 C         -0.040  0.036 -0.038    0.044  0.043 -0.013   -0.048 -0.044  0.012
 H          0.403 -0.171 -0.003   -0.122  0.063 -0.007    0.143 -0.074  0.006
 H          0.059  0.079 -0.007   -0.442 -0.444 -0.019    0.472  0.474  0.022
 H          0.028 -0.342  0.466    0.024 -0.132  0.186   -0.024  0.132 -0.186
 H          0.380 -0.159  0.007    0.139 -0.070 -0.006    0.142 -0.072 -0.005
 H          0.034 -0.305 -0.432   -0.029  0.132  0.193   -0.026  0.117  0.171
 H          0.041  0.061  0.009    0.470  0.476 -0.004    0.442  0.448 -0.005
 TransDip  -0.251  0.206 -0.014   -0.006 -0.007  0.052   -0.172 -0.249 -0.004

 STANDARD THERMODYNAMIC QUANTITIES AT   298.15 K  AND     1.00 ATM

   This Molecule has  1 Imaginary Frequencies
   Zero point vibrational energy:       65.458 kcal/mol

   Atom    1 Element C  Has Mass   12.00000
   Atom    2 Element O  Has Mass   15.99491
   Atom    3 Element O  Has Mass   15.99491
   Atom    4 Element C  Has Mass   12.00000
   Atom    5 Element C  Has Mass   12.00000
   Atom    6 Element O  Has Mass   15.99491
   Atom    7 Element C  Has Mass   12.00000
   Atom    8 Element O  Has Mass   15.99491
   Atom    9 Element C  Has Mass   12.00000
   Atom   10 Element H  Has Mass    1.00783
   Atom   11 Element H  Has Mass    1.00783
   Atom   12 Element H  Has Mass    1.00783
   Atom   13 Element H  Has Mass    1.00783
   Atom   14 Element H  Has Mass    1.00783
   Atom   15 Element H  Has Mass    1.00783
   Molecular Mass:   130.026620 amu
   Principal axes and moments of inertia in amu*Bohr^2:
                             1           2           3
    Eigenvalues --      708.06783  1384.89160  1700.01944
          X               0.99896    -0.04561    -0.00035
          Y               0.04561     0.99896    -0.00089
          Z               0.00039     0.00087     1.00000
   Rotational Symmetry Number is   1
   The Molecule is an Asymmetric Top
   Translational Enthalpy:        0.889 kcal/mol
   Rotational Enthalpy:           0.889 kcal/mol
   Vibrational Enthalpy:         69.042 kcal/mol
   gas constant (RT):             0.592 kcal/mol
   Translational Entropy:        40.501  cal/mol.K
   Rotational Entropy:           28.901  cal/mol.K
   Vibrational Entropy:          20.147  cal/mol.K

   Total Enthalpy:               71.412 kcal/mol
   Total Entropy:                89.549  cal/mol.K
Archival summary:
1\1\bt2600-16\FREQ\ProcedureUnspecified\6-31+G*\456(2-,1)\emavera\MonJun521:30:022017MonJun521:30:022017\0\\#,FREQ,ProcedureUnspecified,6-31+G*,\\-2,1\O\C,1,1.22029\C,2,1.60111,1,119.535\O,3,1.34003,2,114.071,1,0.874633,0\C,3,1.57654,2,106.098,1,123.928,0\H,5,1.09706,3,113.495,2,56.3935,0\H,5,1.10053,3,108.511,2,-65.9013,0\H,5,1.10168,3,107.016,2,178.534,0\C,3,1.57763,2,105.872,1,-121.983,0\H,9,1.09717,3,113.6,2,-56.1749,0\H,9,1.10038,3,108.466,2,66.1834,0\H,9,1.10182,3,106.985,2,-178.25,0\C,2,1.6216,1,117.39,3,-179.862,0\O,13,1.2592,2,115.414,1,-1.34135,0\O,13,1.2657,2,117.314,1,178.598,0\\\@

 Total job time:  2989.38s(wall), 2988.96s(cpu) 
 Mon Jun  5 21:30:02 2017

        *************************************************************
        *                                                           *
        *  Thank you very much for using Q-Chem.  Have a nice day.  *
        *                                                           *
        *************************************************************


0 sent ACK to 0 
now end server 0 ... 
cleanup process ... done
