
Running Job 1 of 2 irc_1020.qcin
qchem irc_1020.qcin_35956.0 /tmp/irc_1020.qcin/ 1
/programs/x86_64/lib/qchem-4.3.2/bin/mpi/mpirun_qchem -machinefile /var/spool/torque/aux//119448.vali -np 1 /programs/x86_64/lib/qchem-4.3.2/exe/qcprog.exe irc_1020.qcin_35956.0 /tmp/irc_1020.qcin/

Process 0 of 1 is on bt2600-16.csail.mit.edu - thread support 0
initial socket setup ...start
initial socket setup ...done 
now start server 0 ... 

cmd = ssh thor /programs/x86_64/lib/qchem-4.3.2/bin/get_hostid 560570774 > /tmp/irc_1020.qcin/lic.dat
                  Welcome to Q-Chem
     A Quantum Leap Into The Future Of Chemistry


 Q-Chem 4.3, Q-Chem, Inc., Pleasanton, CA (2015)

 Y. Shao,  Z. Gan,  E. Epifanovsky,  A. T. B. Gilbert,  M. Wormit,  
 J. Kussmann,  A. W. Lange,  A. Behn,  J. Deng,  X. Feng,  D. Ghosh,  
 M. Goldey,  P. R. Horn,  L. D. Jacobson,  I. Kaliman,  R. Z. Khaliullin,  
 T. Kus,  A. Landau,  J. Liu,  E. I. Proynov,  Y. M. Rhee,  R. M. Richard,  
 M. A. Rohrdanz,  R. P. Steele,  E. J. Sundstrom,  H. L. Woodcock III,  
 P. M. Zimmerman,  D. Zuev,  B. Albrecht,  E. Alguire,  B. Austin,  
 S. A. Baeppler,  G. J. O. Beran,  Y. A. Bernard,  E. Berquist,  
 K. Brandhorst,  K. B. Bravaya,  S. T. Brown,  D. Casanova,  C.-M. Chang,  
 Y. Chen,  S. H. Chien,  K. D. Closser,  D. L. Crittenden,  M. Diedenhofen,  
 R. A. DiStasio Jr.,  H. Do,  A. D. Dutoi,  R. G. Edgar,  P.-T. Fang,  
 S. Fatehi,  Q. Feng,  L. Fusti-Molnar,  A. Ghysels,  
 A. Golubeva-Zadorozhnaya,  J. Gomes,  A. Gunina,  M. W. D. Hanson-Heine,  
 P. H. P. Harbach,  A. W. Hauser,  E. G. Hohenstein,  Z. C. Holden,  K. Hui,  
 T.-C. Jagau,  H. Ji,  B. Kaduk,  K. Khistyaev,  Jaehoon Kim,  Jihan Kim,  
 R. A. King,  P. Klunzinger,  D. Kosenkov,  T. Kowalczyk,  C. M. Krauter,  
 K. U. Lao,  A. Laurent,  K. V. Lawler,  S. Lehtola,  S. V. Levchenko,  
 C. Y. Lin,  Y.-S. Lin,  F. Liu,  E. Livshits,  R. C. Lochan,  A. Luenser,  
 P. Manohar,  S. F. Manzer,  S.-P. Mao,  N. Mardirossian,  A. V. Marenich,  
 L. A. Martinez-Martinez,  S. A. Maurer,  N. J. Mayhall,  K. Nanda,  
 C. M. Oana,  R. Olivares-Amaya,  D. P. O'Neill,  J. A. Parkhill,  
 T. M. Perrine,  R. Peverati,  P. A. Pieniazek,  F. Plasser,  A. Prociuk,  
 D. R. Rehn,  E. Rosta,  N. J. Russ,  N. Sergueev,  S. M. Sharada,  
 S. Sharma,  D. W. Small,  A. Sodt,  T. Stauch,  T. Stein,  D. Stuck,  
 Y.-C. Su,  A. J. W. Thom,  T. Tsuchimochi,  L. Vogt,  O. Vydrov,  T. Wang,  
 M. A. Watson,  J. Wenzel,  A. White,  C. F. Williams,  V. Vanovschi,  
 S. Yeganeh,  S. R. Yost,  Z.-Q. You,  I. Y. Zhang,  X. Zhang,  Y. Zhao,  
 B. R. Brooks,  G. K. L. Chan,  D. M. Chipman,  C. J. Cramer,  
 W. A. Goddard III,  M. S. Gordon,  W. J. Hehre,  A. Klamt,  
 H. F. Schaefer III,  M. W. Schmidt,  C. D. Sherrill,  D. G. Truhlar,  
 A. Warshel,  X. Xu,  A. Aspuru-Guzik,  R. Baer,  A. T. Bell,  N. A. Besley,  
 J.-D. Chai,  A. Dreuw,  B. D. Dunietz,  T. R. Furlani,  S. R. Gwaltney,  
 C.-P. Hsu,  Y. Jung,  J. Kong,  D. S. Lambrecht,  W. Liang,  C. Ochsenfeld,  
 V. A. Rassolov,  L. V. Slipchenko,  J. E. Subotnik,  T. Van Voorhis,  
 J. M. Herbert,  A. I. Krylov,  P. M. W. Gill,  M. Head-Gordon

 Contributors to earlier versions of Q-Chem not listed above: 
 R. D. Adamson,  J. Baker,  E. F. C. Byrd,  A. K. Chakraborty,  C.-L. Cheng,  
 H. Dachsel,  R. J. Doerksen,  G. Hawkins,  A. Heyden,  S. Hirata,  
 G. Kedziora,  F. J. Keil,  C. Kelley,  P. P. Korambath,  W. Kurlancheek,  
 A. M. Lee,  M. S. Lee,  D. Liotard,  I. Lotan,  P. E. Maslen,  N. Nair,  
 D. Neuhauser,  R. Olson,  B. Peters,  J. Ritchie,  N. E. Schultz,  
 N. Shenvi,  A. C. Simmonett,  K. S. Thanthiriwatte,  Q. Wu,  W. Zhang

 Please cite Q-Chem as follows:
 Y. Shao et al., Mol. Phys. 113, 184-215 (2015)
 DOI: 10.1080/00268976.2014.952696

 Q-Chem 4.3.0 for Intel X86 Linux

 Parts of Q-Chem use Armadillo 5.200.1 (Boston Tea Smuggler).
 http://arma.sourceforge.net/

 Q-Chem begins on Wed Jun  7 11:24:03 2017  

Host: 
0

     Scratch files written to /tmp/irc_1020.qcin//
 Oct1215 13750_ 19228  19214 4150   
 Parallel job on  1  processors
Processing $rem in /programs/x86_64/lib/qchem-4.3.2/config/preferences.
 MEM_TOTAL  2000 

Checking the input file for inconsistencies... 	...done.

--------------------------------------------------------------
User input:
--------------------------------------------------------------
$comment
TS Frame 1020 converged, trying to find the RPATH now
$end

$molecule
-2 1
C
O  1 1.266166
C  1 1.501701 2 121.942692
O  3 1.253523 1 124.466424 2 2.481059 0
C  3 1.535840 1 118.144822 2 -171.911579 0
H  5 1.092857 3 113.598303 1 -18.094820 0
H  5 1.099114 3 108.067065 1 101.564700 0
H  5 1.100575 3 108.683140 1 -140.953714 0
C  1 1.580999 2 117.021145 3 -157.215339 0
O  9 1.262592 1 119.509853 2 -76.735683 0
O  9 1.270833 1 113.491741 2 99.649612 0
C  1 2.078293 2 107.888271 3 84.219046 0
H  12 1.092352 1 98.300440 2 -32.861421 0
H  12 1.092402 1 91.513803 2 81.657851 0
H  12 1.100580 1 126.448085 2 -159.194350 0
$end

$rem
jobtype freq
basis 6-31+G(d)
exchange b3lyp
$end


--------------------------------------------------------------
 ----------------------------------------------------------------
             Standard Nuclear Orientation (Angstroms)
    I     Atom           X                Y                Z
 ----------------------------------------------------------------
    1      C       0.0797945966    -0.4909783694    -0.4223075321
    2      O       0.1313474063    -1.4572744400    -1.2388799730
    3      C      -1.1864532086     0.2798716911    -0.1824897396
    4      O      -2.2889245969     0.0175537506    -0.7182751888
    5      C      -1.1098133330     1.5491098778     0.6788843141
    6      H      -0.2072507241     1.6077002662     1.2923045011
    7      H      -1.1176993056     2.4184439439     0.0063906875
    8      H      -2.0042769838     1.5956880274     1.3184393032
    9      C       1.4423313860     0.2349101035    -0.0815183592
   10      O       2.2586348364    -0.3142909509     0.7097877997
   11      O       1.6143739870     1.3173156007    -0.7248038300
   12      C      -0.6241447946    -1.2240138460     1.3905438455
   13      H      -1.2884339969    -1.9983756046     1.0002662336
   14      H       0.3695936068    -1.5869677565     1.6627396904
   15      H      -1.0856735372    -0.6363173016     2.1985539493
 ----------------------------------------------------------------
 Molecular Point Group                 C1    NOp =  1
 Largest Abelian Subgroup              C1    NOp =  1
 Nuclear Repulsion Energy =   448.3253641179 hartrees
 There are       35 alpha and       35 beta electrons
 Requested basis set is 6-31+G(d)
 There are 57 shells and 183 basis functions

 Total QAlloc Memory Limit   2000 MB
 Mega-Array Size        61 MB
 MEM_STATIC part        62 MB

                       Distance Matrix (Angstroms)
             C (  1)   O (  2)   C (  3)   O (  4)   C (  5)   H (  6)
   O (  2)  1.266166
   C (  3)  1.501701  2.422857
   O (  4)  2.440703  2.881643  1.253523
   C (  5)  2.605715  3.775797  1.535840  2.384957
   H (  6)  2.725205  3.989438  2.212913  3.302175  1.092857
   H (  7)  3.175297  4.258170  2.147998  2.767884  1.099114  1.771947
   H (  8)  3.424577  4.518999  2.157081  2.592246  1.100575  1.797256
   C (  9)  1.580999  2.433445  2.631107  3.791434  2.969642  2.548149
   O ( 10)  2.461748  3.103074  3.608022  4.778052  3.849631  3.180246
   O ( 11)  2.390892  3.187788  3.035626  4.114020  3.073315  2.733380
   C ( 12)  2.078293  2.745733  2.247732  2.959747  2.903885  2.863923
   H ( 13)  2.483548  2.705983  2.568993  2.831667  3.566489  3.775980
   H ( 14)  2.373310  2.914271  3.051433  3.912984  3.604386  3.267396
   H ( 15)  2.871995  3.737788  2.553219  3.222305  2.661967  2.574593
             H (  7)   H (  8)   C (  9)   O ( 10)   O ( 11)   C ( 12)
   H (  8)  1.784494
   C (  9)  3.365903  3.961150
   O ( 10)  4.400255  4.710721  1.262592
   O ( 11)  3.035021  4.164969  1.270833  2.266112
   C ( 12)  3.927719  3.140172  2.926730  3.098620  3.992996
   H ( 13)  4.530478  3.678445  3.689838  3.937285  4.732438  1.092352
   H ( 14)  4.582451  3.985361  2.740883  2.469069  3.960392  1.092402
   H ( 15)  3.760076  2.569101  3.514054  3.674850  4.433166  1.100580
             H ( 13)   H ( 14)
   H ( 14)  1.832262
   H ( 15)  1.825434  1.818966
 
 A cutoff of  1.0D-11 yielded   1549 shell pairs
 There are     16683 function pairs
 
 -------------------------------------------------------
 OpenMP Integral Computing Module                       
 Release: version 1.0, May 2013, Q-Chem Inc. Pittsburgh 
 -------------------------------------------------------
 Integral Job Info:
 Integral job number is                      11
 Integral operator is                         1
 short-range coefficients                     0
 long-range coefficients              100000000
 Omega coefficients                           0
 if combine SR and LR in K                    0
 Integral screening is                        0
 Integral computing path is                   2
 max size of driver memory is            800000
 size of driver memory is                593474
 size of scratch memory is              2260544
 max col of scratch BK array               1296
 max len of scratch array in speh3          155
 max len of scratch index in speh4           18
 max int batch size is                      520
 min int batch size is                       52
 fixed nKL is                                52
 max L of basis functions is                  2
 order of int derivative is                   0
 number of shells is                         57
 number of basis is                         183
 number of cartesian basis is               183
 number of contracted shell pairs          1549
 number of primitive shell pairs           5349
 maxK2 (contraction) of shell pair           36
 max number of K2 of shell pair               1
 max number of CS2 of shell pair            195
 max number of PS2 of shell pair           1170
 mem total for path MDJ                   46792
 -------------------------------------------------------
 Smallest overlap matrix eigenvalue = 1.90E-05
 Guess from superposition of atomic densities
 Warning:  Energy on first SCF cycle will be non-variational
 A restricted hybrid HF-DFT SCF calculation will be
 performed using Pulay DIIS extrapolation
 Exchange:     0.2000 Hartree-Fock + 0.0800 Slater + 0.7200 B88
 Correlation:  0.1900 VWN1RPA + 0.8100 LYP
 Using SG-1 standard quadrature grid
 SCF converges when DIIS error is below 1.0E-08
 CPU 0.00 s  wall 0.00 s
 Inaccurate integrated density:
   Number of electrons =    70
   Numerical integral  =    68.000657864322
   Relative error      =    -2.8562030510 %
 CPU 4.89 s  wall 4.89 s
 ---------------------------------------
  Cycle       Energy         DIIS Error
 ---------------------------------------
    1    -496.0858609415      4.81E-02
 CPU 0.00 s  wall 0.00 s
 CPU 5.50 s  wall 5.50 s
    2    -494.5812660276      1.04E-02
 CPU 0.00 s  wall 0.00 s
 CPU 5.51 s  wall 5.51 s
    3    -491.6318113931      2.55E-02
 CPU 0.00 s  wall 0.00 s
 CPU 5.49 s  wall 5.49 s
    4    -494.7228588563      7.94E-03
 CPU 0.00 s  wall 0.00 s
 CPU 5.46 s  wall 5.46 s
    5    -494.9770936338      1.17E-03
 CPU 0.00 s  wall 0.00 s
 CPU 5.43 s  wall 5.43 s
    6    -494.9829370523      8.81E-04
 CPU 0.00 s  wall 0.00 s
 CPU 5.39 s  wall 5.39 s
    7    -494.9858140633      3.69E-04
 CPU 0.00 s  wall 0.00 s
 CPU 5.34 s  wall 5.34 s
    8    -494.9862445039      1.98E-04
 CPU 0.00 s  wall 0.00 s
 CPU 5.29 s  wall 5.29 s
    9    -494.9863811979      4.12E-05
 CPU 0.00 s  wall 0.00 s
 CPU 5.23 s  wall 5.23 s
   10    -494.9863857181      2.08E-05
 CPU 0.00 s  wall 0.00 s
 CPU 5.19 s  wall 5.19 s
   11    -494.9863872837      6.05E-06
 CPU 0.00 s  wall 0.00 s
 CPU 5.11 s  wall 5.11 s
   12    -494.9863873861      3.30E-06
 CPU 0.00 s  wall 0.00 s
 CPU 5.03 s  wall 5.03 s
   13    -494.9863874214      7.42E-07
 CPU 0.00 s  wall 0.00 s
 CPU 4.93 s  wall 4.93 s
   14    -494.9863874232      2.59E-07
 CPU 0.00 s  wall 0.00 s
 CPU 4.82 s  wall 4.82 s
   15    -494.9863874236      5.22E-08
 CPU 0.00 s  wall 0.00 s
 CPU 4.64 s  wall 4.64 s
   16    -494.9863874220      1.97E-08
 CPU 0.00 s  wall 0.00 s
 CPU 4.38 s  wall 4.38 s
   17    -494.9863874225      4.47E-09 Convergence criterion met
 ---------------------------------------
 SCF time:  CPU 205.16 s  wall 204.72 s
 SCF   energy in the final basis set = -494.9863874225
 Total energy in the final basis set = -494.9863874225
 
 --------------------------------------------------------------
 
                    Orbital Energies (a.u.)
 --------------------------------------------------------------
 
 Alpha MOs
 -- Occupied --
-18.821 -18.789 -18.788 -18.786  -9.967  -9.963  -9.943  -9.911
 -9.881  -0.716  -0.707  -0.663  -0.622  -0.461  -0.388  -0.336
 -0.243  -0.180  -0.157  -0.144  -0.136  -0.113  -0.108  -0.098
 -0.094  -0.083  -0.067  -0.058  -0.009   0.031   0.044   0.058
  0.075   0.104   0.111
 -- Virtual --
  0.225   0.243   0.266   0.277   0.279   0.299   0.302   0.308
  0.310   0.327   0.331   0.340   0.341   0.350   0.353   0.364
  0.373   0.384   0.392   0.399   0.407   0.433   0.465   0.483
  0.494   0.501   0.516   0.527   0.532   0.549   0.552   0.556
  0.564   0.571   0.579   0.591   0.595   0.598   0.612   0.620
  0.626   0.632   0.643   0.655   0.666   0.689   0.693   0.733
  0.743   0.792   0.840   0.845   0.943   0.965   0.995   1.010
  1.025   1.064   1.087   1.102   1.118   1.134   1.159   1.175
  1.212   1.225   1.255   1.286   1.296   1.315   1.337   1.371
  1.419   1.446   1.475   1.482   1.524   1.563   1.599   1.606
  1.613   1.634   1.640   1.658   1.668   1.680   1.685   1.718
  1.740   1.756   1.775   1.817   1.879   1.901   1.904   1.941
  1.976   1.997   2.032   2.062   2.093   2.096   2.144   2.163
  2.172   2.215   2.239   2.250   2.265   2.290   2.313   2.344
  2.365   2.381   2.422   2.439   2.470   2.532   2.566   2.584
  2.601   2.615   2.656   2.699   2.709   2.767   2.832   2.910
  2.970   2.998   3.046   3.070   3.201   3.272   3.407   3.417
  3.432   3.510   3.595   4.481   4.529   4.593   4.682   4.710
  4.774   4.848   4.938   5.116
 --------------------------------------------------------------
 
          Ground-State Mulliken Net Atomic Charges

     Atom                 Charge (a.u.)
  ----------------------------------------
      1 C                     0.260580
      2 O                    -0.586837
      3 C                     0.311388
      4 O                    -0.558140
      5 C                    -0.770404
      6 H                     0.225170
      7 H                     0.192551
      8 H                     0.169522
      9 C                     0.319769
     10 O                    -0.612927
     11 O                    -0.605537
     12 C                    -0.928773
     13 H                     0.200290
     14 H                     0.233214
     15 H                     0.150134
  ----------------------------------------
  Sum of atomic charges =    -2.000000

 -----------------------------------------------------------------
                    Cartesian Multipole Moments
 -----------------------------------------------------------------
    Charge (ESU x 10^10)
                -9.6064
    Dipole Moment (Debye)
         X      -3.0490      Y       2.5863      Z       2.2657
       Tot       4.5955
    Quadrupole Moments (Debye-Ang)
        XX    -100.2819     XY      -5.0608     YY     -78.8451
        XZ      -3.2598     YZ       2.0596     ZZ     -76.9324
    Octopole Moments (Debye-Ang^2)
       XXX      -5.6460    XXY      -7.5126    XYY      -4.5807
       YYY      10.1943    XXZ      -2.9639    XYZ       4.0628
       YYZ      -2.7839    XZZ       5.7142    YZZ      18.4520
       ZZZ     -21.7269
    Hexadecapole Moments (Debye-Ang^3)
      XXXX   -1056.2985   XXXY     -11.2421   XXYY    -253.0931
      XYYY     -16.0741   YYYY    -564.1893   XXXZ     -34.4771
      XXYZ      19.9721   XYYZ      26.3235   YYYZ      19.3869
      XXZZ    -234.0529   XYZZ     -13.9206   YYZZ    -193.2332
      XZZZ      27.0215   YZZZ      34.9560   ZZZZ    -448.6853
 -----------------------------------------------------------------
 Calculating MO derivatives via CPSCF
 CPU 0.00 s  wall 0.00 s
 CPU 212.47 s  wall 212.47 s
 CPU 0.00 s  wall 0.00 s
 CPU 172.33 s  wall 172.33 s
 CPU 0.00 s  wall 0.00 s
 CPU 212.01 s  wall 212.01 s
   1         3          45      0.359510    0.076283
 CPU 0.00 s  wall 0.00 s
 CPU 213.67 s  wall 213.67 s
   2         3          45      0.050589    0.012404
 CPU 0.00 s  wall 0.00 s
 CPU 213.84 s  wall 213.84 s
   3         3          45      0.004426    0.001184
 CPU 0.00 s  wall 0.00 s
 CPU 213.92 s  wall 213.92 s
   4        14          34      0.000320    0.000095
 CPU 0.00 s  wall 0.00 s
 CPU 161.77 s  wall 161.77 s
   5        45           3      0.000013    0.000006
 CPU 0.00 s  wall 0.00 s
 CPU 17.70 s  wall 17.70 s
   6        48           0      0.000000    0.000000    Roots Converged
 CPU 0.00 s  wall 0.00 s
 CPU 219.72 s  wall 219.72 s
 Calculating analytic Hessian of the SCF energy
 Polarizability Matrix (a.u.)
            1           2           3
    1-117.9634016   0.6162172   7.2953380
    2   0.6162172-127.9948698  22.4518269
    3   7.2953380  22.4518269-137.1553660
 CPU 0.00 s  wall 0.00 s
 CPU 236.57 s  wall 236.58 s
 
 Direct stationary perturbation theory relativistic correction:
 
 rels  =       0.158772396976
 relv  =      -0.762854328600
 rel2e =       0.332153736398
 E_rel =      -0.271928195226
 
 Hessian of the SCF Energy
            1           2           3           4           5           6
    1   0.4426824  -0.0383180   0.0582486  -0.0907026   0.0012863  -0.0073694
    2  -0.0383180   0.5591953   0.2430688  -0.0004360  -0.3430778  -0.2244046
    3   0.0582486   0.2430688   0.2831593  -0.0036885  -0.1967276  -0.2196068
    4  -0.0907026  -0.0004360  -0.0036885   0.0785142  -0.0169483  -0.0160846
    5   0.0012863  -0.3430778  -0.1967276  -0.0169483   0.3699505   0.2713236
    6  -0.0073694  -0.2244046  -0.2196068  -0.0160846   0.2713236   0.2692084
    7  -0.1708324   0.0391618   0.0333665  -0.0003017   0.0099743   0.0029659
    8   0.0433686  -0.0874806  -0.0519891   0.0294520  -0.0265529  -0.0146493
    9   0.0041696  -0.0450936  -0.0093783   0.0222261  -0.0386170  -0.0272843
   10  -0.0468785  -0.0044728  -0.0425670   0.0088049   0.0013383   0.0090346
   11   0.0186252   0.0100982  -0.0013772   0.0009865   0.0049970   0.0059198
   12  -0.0076442   0.0048847  -0.0098341   0.0032928   0.0075740   0.0102203
   13   0.0084054   0.0162048   0.0160555  -0.0056454   0.0035465   0.0001932
   14   0.0012529  -0.0121467  -0.0101038   0.0022670   0.0016431   0.0000396
   15  -0.0018527  -0.0054613  -0.0072572   0.0002609  -0.0010791   0.0035261
   16  -0.0001161   0.0005805  -0.0001177   0.0003942  -0.0003214   0.0000211
   17   0.0002909  -0.0002771   0.0010674  -0.0001137   0.0007379   0.0003931
   18  -0.0011112  -0.0002019   0.0010345   0.0006772   0.0002470   0.0000527
   19   0.0005402   0.0003830  -0.0009483  -0.0001890   0.0001516   0.0006269
   20  -0.0012809  -0.0019159   0.0025481   0.0010131  -0.0007281  -0.0019799
   21   0.0007567  -0.0004159  -0.0003845   0.0001102   0.0003836  -0.0001730
   22   0.0012778  -0.0011283   0.0014739  -0.0001277   0.0010211   0.0002401
   23  -0.0030277  -0.0015515  -0.0042106   0.0014310  -0.0015034   0.0001455
   24  -0.0040278   0.0000956  -0.0016754   0.0012580  -0.0016813  -0.0006575
   25  -0.1276834  -0.0124631  -0.0001808   0.0154178   0.0022056   0.0001487
   26  -0.0042205  -0.0675435  -0.0193031  -0.0174304  -0.0208532  -0.0171115
   27   0.0053480  -0.0070951  -0.0611419  -0.0216271  -0.0271085  -0.0150525
   28  -0.0183695   0.0207711  -0.0217331  -0.0030596  -0.0105643  -0.0044862
   29  -0.0095469   0.0083868   0.0021810   0.0007969   0.0052369   0.0016264
   30  -0.0192042   0.0118019  -0.0019088   0.0003740   0.0001798   0.0032803
   31   0.0055060  -0.0262433   0.0096822  -0.0044684  -0.0046013  -0.0054315
   32  -0.0095990  -0.0216153   0.0199713  -0.0046316  -0.0000962  -0.0049080
   33  -0.0062109   0.0090783   0.0065092   0.0046021   0.0042927   0.0069850
   34  -0.0023653   0.0096530  -0.0468229  -0.0001066   0.0109404   0.0190491
   35  -0.0024487  -0.0295663   0.0162213   0.0028368   0.0024401  -0.0180918
   36  -0.0171348  -0.0023372   0.0268442   0.0068712  -0.0150899  -0.0283597
   37  -0.0019273  -0.0043532  -0.0037060   0.0009183   0.0032327   0.0004477
   38  -0.0023927  -0.0081315  -0.0021535   0.0020614   0.0034740  -0.0013934
   39   0.0051134   0.0103218  -0.0007879  -0.0017772  -0.0015633   0.0029298
   40   0.0012779  -0.0010557   0.0045562  -0.0001047  -0.0017600  -0.0014369
   41   0.0043049  -0.0072494   0.0098587  -0.0010718   0.0002848  -0.0023738
   42  -0.0056812   0.0118017  -0.0138746   0.0012833  -0.0008703   0.0035589
   43  -0.0008146   0.0017162  -0.0036185   0.0006562   0.0004986   0.0020813
   44   0.0017055   0.0028752  -0.0090517  -0.0002128   0.0040473   0.0054644
   45  -0.0033999  -0.0060432   0.0083021   0.0022216  -0.0012636  -0.0086278
            7           8           9          10          11          12
    1  -0.1708324   0.0433686   0.0041696  -0.0468785   0.0186252  -0.0076442
    2   0.0391618  -0.0874806  -0.0450936  -0.0044728   0.0100982   0.0048847
    3   0.0333665  -0.0519891  -0.0093783  -0.0425670  -0.0013772  -0.0098341
    4  -0.0003017   0.0294520   0.0222261   0.0088049   0.0009865   0.0032928
    5   0.0099743  -0.0265529  -0.0386170   0.0013383   0.0049970   0.0075740
    6   0.0029659  -0.0146493  -0.0272843   0.0090346   0.0059198   0.0102203
    7   0.7247727   0.0396837   0.1111095  -0.4483609  -0.0908117  -0.1711971
    8   0.0396837   0.3785007   0.1787960  -0.0987981  -0.1118962  -0.0680363
    9   0.1111095   0.1787960   0.3171148  -0.1566072  -0.0530463  -0.1506861
   10  -0.4483609  -0.0987981  -0.1566072   0.5086298   0.1035093   0.2236373
   11  -0.0908117  -0.1118962  -0.0530463   0.1035093   0.1011861   0.0785853
   12  -0.1711971  -0.0680363  -0.1506861   0.2236373   0.0785853   0.1609677
   13  -0.0800523   0.0148104   0.0020161  -0.0126899  -0.0359461  -0.0307053
   14   0.0096542  -0.1305186  -0.0377644  -0.0180409  -0.0071929  -0.0204661
   15   0.0136625  -0.0463323  -0.0921610  -0.0216818  -0.0260632  -0.0143441
   16  -0.0029895  -0.0000148  -0.0000285   0.0020733  -0.0009520  -0.0011138
   17  -0.0243970   0.0062061  -0.0093262  -0.0019462  -0.0067757  -0.0066566
   18  -0.0152012   0.0076071  -0.0077030  -0.0014807  -0.0062728  -0.0020024
   19  -0.0013647  -0.0003478  -0.0000771   0.0000432  -0.0001298  -0.0009539
   20   0.0007064  -0.0210987   0.0173589   0.0003766   0.0028727  -0.0021508
   21  -0.0022989  -0.0143163   0.0102034   0.0013358   0.0007788  -0.0001306
   22  -0.0044425   0.0008193  -0.0010885   0.0026186  -0.0011370  -0.0010675
   23   0.0257511  -0.0064107  -0.0174779   0.0002811   0.0022441   0.0039520
   24   0.0187607  -0.0021736  -0.0103604  -0.0020891   0.0013687   0.0025726
   25  -0.0163780  -0.0012811  -0.0076722   0.0051824  -0.0013583   0.0036730
   26   0.0087547   0.0195960   0.0073909   0.0123734  -0.0055887   0.0014871
   27   0.0011002   0.0041390   0.0027154   0.0009730  -0.0023487   0.0018602
   28  -0.0040674  -0.0060943  -0.0037443  -0.0051397   0.0019636   0.0000185
   29   0.0010212  -0.0034162  -0.0006296  -0.0024883   0.0009121  -0.0003877
   30  -0.0040242  -0.0036327  -0.0039564  -0.0013647   0.0018474   0.0007123
   31   0.0021960  -0.0005480   0.0021155  -0.0015069   0.0003919  -0.0009436
   32   0.0020247  -0.0103265   0.0023906  -0.0062530   0.0035827  -0.0024384
   33  -0.0016715  -0.0002037  -0.0024476   0.0023141   0.0001473   0.0016643
   34   0.0066068  -0.0248768   0.0318108  -0.0174118   0.0038842  -0.0189687
   35  -0.0094232  -0.0006166  -0.0052171   0.0082181   0.0012336   0.0034478
   36   0.0003543   0.0110192  -0.0203841  -0.0047143   0.0009842  -0.0002106
   37  -0.0016636   0.0009955  -0.0009821   0.0012822   0.0007834   0.0003442
   38  -0.0079654  -0.0055156  -0.0012415   0.0027670   0.0034135  -0.0011476
   39   0.0048070   0.0052821  -0.0027352   0.0005001  -0.0018436   0.0019894
   40  -0.0022289   0.0016011  -0.0029809   0.0024695   0.0006407   0.0011971
   41  -0.0044787   0.0039806  -0.0068924   0.0047953   0.0006641   0.0036176
   42   0.0040053  -0.0067565   0.0055215  -0.0054614   0.0011846  -0.0045889
   43  -0.0008936   0.0012302  -0.0002667   0.0008838  -0.0004499   0.0004313
   44   0.0003441  -0.0044509   0.0093694  -0.0016600   0.0002493  -0.0022651
   45   0.0042610   0.0012462  -0.0084588  -0.0018288   0.0001357   0.0018098
           13          14          15          16          17          18
    1   0.0084054   0.0012529  -0.0018527  -0.0001161   0.0002909  -0.0011112
    2   0.0162048  -0.0121467  -0.0054613   0.0005805  -0.0002771  -0.0002019
    3   0.0160555  -0.0101038  -0.0072572  -0.0001177   0.0010674   0.0010345
    4  -0.0056454   0.0022670   0.0002609   0.0003942  -0.0001137   0.0006772
    5   0.0035465   0.0016431  -0.0010791  -0.0003214   0.0007379   0.0002470
    6   0.0001932   0.0000396   0.0035261   0.0000211   0.0003931   0.0000527
    7  -0.0800523   0.0096542   0.0136625  -0.0029895  -0.0243970  -0.0152012
    8   0.0148104  -0.1305186  -0.0463323  -0.0000148   0.0062061   0.0076071
    9   0.0020161  -0.0377644  -0.0921610  -0.0000285  -0.0093262  -0.0077030
   10  -0.0126899  -0.0180409  -0.0216818   0.0020733  -0.0019462  -0.0014807
   11  -0.0359461  -0.0071929  -0.0260632  -0.0009520  -0.0067757  -0.0062728
   12  -0.0307053  -0.0204661  -0.0143441  -0.0011138  -0.0066566  -0.0020024
   13   0.5845620   0.0034568   0.0222087  -0.2339877  -0.0074425  -0.1225119
   14   0.0034568   0.4502967  -0.0446380  -0.0102787  -0.0471320  -0.0089200
   15   0.0222087  -0.0446380   0.5171038  -0.1267469  -0.0077155  -0.1337156
   16  -0.2339877  -0.0102787  -0.1267469   0.2543040   0.0092750   0.1370849
   17  -0.0074425  -0.0471320  -0.0077155   0.0092750   0.0494288   0.0080976
   18  -0.1225119  -0.0089200  -0.1337156   0.1370849   0.0080976   0.1399183
   19  -0.0457815   0.0006025  -0.0010850   0.0009772   0.0216673  -0.0161109
   20   0.0009050  -0.2027169   0.1266373   0.0001879   0.0014823  -0.0012323
   21  -0.0023925   0.1236627  -0.1421707   0.0010028   0.0139964  -0.0114360
   22  -0.2131254   0.0059994   0.1160771  -0.0186753   0.0010661   0.0164628
   23   0.0053340  -0.0422893  -0.0026389  -0.0007765  -0.0016130   0.0009781
   24   0.1148231  -0.0018145  -0.1306696  -0.0139839   0.0009451   0.0126907
   25  -0.0012799   0.0021738   0.0011726  -0.0014207   0.0013620   0.0011636
   26   0.0008203  -0.0005325   0.0000368   0.0011944   0.0004324  -0.0032357
   27   0.0022804  -0.0005041  -0.0001453   0.0017142  -0.0020670   0.0004850
   28  -0.0002681   0.0001482  -0.0002049   0.0001537   0.0000613  -0.0000871
   29  -0.0002266  -0.0001038   0.0000773  -0.0001490  -0.0001245   0.0005783
   30  -0.0009919   0.0003074  -0.0002493   0.0000977   0.0007184  -0.0005811
   31  -0.0016247   0.0001360   0.0010935  -0.0011631   0.0000962   0.0000259
   32   0.0009642  -0.0002593  -0.0008623   0.0007271  -0.0011045   0.0020509
   33  -0.0001433   0.0004395  -0.0017522   0.0009005  -0.0000678   0.0004291
   34   0.0009472   0.0018721  -0.0024412   0.0011846   0.0004667   0.0009785
   35  -0.0022881  -0.0068456   0.0041380   0.0001785  -0.0009783   0.0000044
   36  -0.0013600   0.0003913   0.0027644   0.0001293  -0.0002132   0.0004733
   37   0.0000108   0.0002681   0.0000726  -0.0001838   0.0001427   0.0000009
   38  -0.0003849  -0.0006045   0.0010920   0.0003849   0.0002027   0.0002790
   39   0.0000779   0.0000274  -0.0004601   0.0001419   0.0001796  -0.0001422
   40  -0.0001320  -0.0000544   0.0001840  -0.0000332  -0.0000312  -0.0000614
   41   0.0001785  -0.0006779   0.0008860  -0.0001091  -0.0003137  -0.0002993
   42   0.0006498   0.0000885  -0.0004179   0.0002069   0.0003105   0.0003189
   43   0.0006617   0.0005429  -0.0007193  -0.0005178  -0.0004976   0.0001705
   44   0.0000678  -0.0009198   0.0019233   0.0000731  -0.0001715   0.0003198
   45  -0.0001998  -0.0007454  -0.0000515   0.0006915   0.0003382   0.0001777
           19          20          21          22          23          24
    1   0.0005402  -0.0012809   0.0007567   0.0012778  -0.0030277  -0.0040278
    2   0.0003830  -0.0019159  -0.0004159  -0.0011283  -0.0015515   0.0000956
    3  -0.0009483   0.0025481  -0.0003845   0.0014739  -0.0042106  -0.0016754
    4  -0.0001890   0.0010131   0.0001102  -0.0001277   0.0014310   0.0012580
    5   0.0001516  -0.0007281   0.0003836   0.0010211  -0.0015034  -0.0016813
    6   0.0006269  -0.0019799  -0.0001730   0.0002401   0.0001455  -0.0006575
    7  -0.0013647   0.0007064  -0.0022989  -0.0044425   0.0257511   0.0187607
    8  -0.0003478  -0.0210987  -0.0143163   0.0008193  -0.0064107  -0.0021736
    9  -0.0000771   0.0173589   0.0102034  -0.0010885  -0.0174779  -0.0103604
   10   0.0000432   0.0003766   0.0013358   0.0026186   0.0002811  -0.0020891
   11  -0.0001298   0.0028727   0.0007788  -0.0011370   0.0022441   0.0013687
   12  -0.0009539  -0.0021508  -0.0001306  -0.0010675   0.0039520   0.0025726
   13  -0.0457815   0.0009050  -0.0023925  -0.2131254   0.0053340   0.1148231
   14   0.0006025  -0.2027169   0.1236627   0.0059994  -0.0422893  -0.0018145
   15  -0.0010850   0.1266373  -0.1421707   0.1160771  -0.0026389  -0.1306696
   16   0.0009772   0.0001879   0.0010028  -0.0186753  -0.0007765  -0.0139839
   17   0.0216673   0.0014823   0.0139964   0.0010661  -0.0016130   0.0009451
   18  -0.0161109  -0.0012323  -0.0114360   0.0164628   0.0009781   0.0126907
   19   0.0444965  -0.0012758   0.0015809   0.0004989  -0.0216356   0.0165909
   20  -0.0012758   0.2218502  -0.1371559  -0.0007002   0.0015869  -0.0014592
   21   0.0015809  -0.1371559   0.1561128  -0.0006466   0.0137665  -0.0123272
   22   0.0004989  -0.0007002  -0.0006466   0.2321721  -0.0061873  -0.1308971
   23  -0.0216356   0.0015869   0.0137665  -0.0061873   0.0485290   0.0048429
   24   0.0165909  -0.0014592  -0.0123272  -0.1308971   0.0048429   0.1386483
   25   0.0002195  -0.0008747   0.0003417   0.0003843  -0.0007632  -0.0003405
   26   0.0016561  -0.0019895   0.0005446  -0.0014490  -0.0008851   0.0002924
   27  -0.0015441   0.0009988  -0.0006918   0.0007477   0.0007499  -0.0002550
   28   0.0001638   0.0000833  -0.0000178  -0.0003787   0.0000551   0.0003177
   29  -0.0004528   0.0007110  -0.0001319   0.0003389   0.0003228  -0.0000597
   30   0.0008154  -0.0006820   0.0004077  -0.0004531  -0.0002692   0.0003945
   31   0.0001661  -0.0003543   0.0000468  -0.0007520  -0.0002024   0.0004054
   32  -0.0016666   0.0021146  -0.0010388   0.0013432   0.0011060  -0.0001884
   33   0.0003596  -0.0006571  -0.0000330   0.0005336  -0.0001502   0.0003695
   34   0.0003137   0.0012677   0.0006613   0.0001267  -0.0001307  -0.0006580
   35   0.0008849  -0.0014066  -0.0001996   0.0000770   0.0004023  -0.0000015
   36   0.0010393  -0.0023001  -0.0004232   0.0001601  -0.0004593   0.0002805
   37  -0.0000106   0.0000694  -0.0000811   0.0001688  -0.0000490  -0.0000349
   38   0.0004170  -0.0006919   0.0002406   0.0000028  -0.0000395  -0.0001207
   39  -0.0002506   0.0003510   0.0001717  -0.0002003   0.0000739   0.0000696
   40   0.0000214  -0.0001732  -0.0001445   0.0000840  -0.0001044   0.0000049
   41  -0.0000678  -0.0006636   0.0000161  -0.0002684  -0.0000263   0.0001416
   42  -0.0001003   0.0003184   0.0002040  -0.0002228   0.0002010   0.0001619
   43  -0.0000946   0.0000496  -0.0002548   0.0001703   0.0000245  -0.0001294
   44  -0.0001863   0.0005935  -0.0001310   0.0002024   0.0001276  -0.0001874
   45   0.0000574  -0.0005953   0.0006702  -0.0011195   0.0004964   0.0007574
           25          26          27          28          29          30
    1  -0.1276834  -0.0042205   0.0053480  -0.0183695  -0.0095469  -0.0192042
    2  -0.0124631  -0.0675435  -0.0070951   0.0207711   0.0083868   0.0118019
    3  -0.0001808  -0.0193031  -0.0611419  -0.0217331   0.0021810  -0.0019088
    4   0.0154178  -0.0174304  -0.0216271  -0.0030596   0.0007969   0.0003740
    5   0.0022056  -0.0208532  -0.0271085  -0.0105643   0.0052369   0.0001798
    6   0.0001487  -0.0171115  -0.0150525  -0.0044862   0.0016264   0.0032803
    7  -0.0163780   0.0087547   0.0011002  -0.0040674   0.0010212  -0.0040242
    8  -0.0012811   0.0195960   0.0041390  -0.0060943  -0.0034162  -0.0036327
    9  -0.0076722   0.0073909   0.0027154  -0.0037443  -0.0006296  -0.0039564
   10   0.0051824   0.0123734   0.0009730  -0.0051397  -0.0024883  -0.0013647
   11  -0.0013583  -0.0055887  -0.0023487   0.0019636   0.0009121   0.0018474
   12   0.0036730   0.0014871   0.0018602   0.0000185  -0.0003877   0.0007123
   13  -0.0012799   0.0008203   0.0022804  -0.0002681  -0.0002266  -0.0009919
   14   0.0021738  -0.0005325  -0.0005041   0.0001482  -0.0001038   0.0003074
   15   0.0011726   0.0000368  -0.0001453  -0.0002049   0.0000773  -0.0002493
   16  -0.0014207   0.0011944   0.0017142   0.0001537  -0.0001490   0.0000977
   17   0.0013620   0.0004324  -0.0020670   0.0000613  -0.0001245   0.0007184
   18   0.0011636  -0.0032357   0.0004850  -0.0000871   0.0005783  -0.0005811
   19   0.0002195   0.0016561  -0.0015441   0.0001638  -0.0004528   0.0008154
   20  -0.0008747  -0.0019895   0.0009988   0.0000833   0.0007110  -0.0006820
   21   0.0003417   0.0005446  -0.0006918  -0.0000178  -0.0001319   0.0004077
   22   0.0003843  -0.0014490   0.0007477  -0.0003787   0.0003389  -0.0004531
   23  -0.0007632  -0.0008851   0.0007499   0.0000551   0.0003228  -0.0002692
   24  -0.0003405   0.0002924  -0.0002550   0.0003177  -0.0000597   0.0003945
   25   0.5215562  -0.0228511   0.1499477  -0.2847545   0.1087908  -0.1768157
   26  -0.0228511   0.6067639  -0.2463216   0.0946975  -0.1554486   0.1018940
   27   0.1499477  -0.2463216   0.4793499  -0.1751783   0.1098396  -0.2328459
   28  -0.2847545   0.0946975  -0.1751783   0.2932107  -0.1336248   0.2248061
   29   0.1087908  -0.1554486   0.1098396  -0.1336248   0.1831905  -0.1746407
   30  -0.1768157   0.1018940  -0.2328459   0.2248061  -0.1746407   0.2606046
   31  -0.1125522  -0.0682998   0.0271434   0.0267139   0.0382146  -0.0256287
   32  -0.0748392  -0.3687240   0.1631981   0.0342529  -0.0415277   0.0642775
   33   0.0321713   0.1667742  -0.1678166  -0.0211258   0.0638701  -0.0303761
   34   0.0020694  -0.0061594   0.0086453  -0.0019386  -0.0003984   0.0004900
   35  -0.0032415  -0.0013522   0.0011552  -0.0017098  -0.0003599   0.0019001
   36   0.0001706   0.0047783  -0.0014424   0.0004515   0.0000174   0.0019787
   37  -0.0007245   0.0012327  -0.0004903  -0.0006351  -0.0009930   0.0014969
   38   0.0010825  -0.0002941   0.0010569  -0.0002664   0.0003630  -0.0003552
   39  -0.0010278   0.0005355  -0.0018807   0.0004783  -0.0002425   0.0005480
   40  -0.0004637  -0.0009033   0.0008049  -0.0010655  -0.0002607   0.0005967
   41   0.0015973  -0.0026135   0.0030568  -0.0000418   0.0013496  -0.0028602
   42  -0.0009022   0.0019534  -0.0020250  -0.0003418  -0.0020470   0.0011459
   43   0.0004274   0.0005843   0.0001349  -0.0005655  -0.0010220  -0.0001945
   44   0.0004601  -0.0009674   0.0012506   0.0002683   0.0005079  -0.0004864
   45  -0.0018497   0.0002847  -0.0011134   0.0008473  -0.0000509   0.0008454
           31          32          33          34          35          36
    1   0.0055060  -0.0095990  -0.0062109  -0.0023653  -0.0024487  -0.0171348
    2  -0.0262433  -0.0216153   0.0090783   0.0096530  -0.0295663  -0.0023372
    3   0.0096822   0.0199713   0.0065092  -0.0468229   0.0162213   0.0268442
    4  -0.0044684  -0.0046316   0.0046021  -0.0001066   0.0028368   0.0068712
    5  -0.0046013  -0.0000962   0.0042927   0.0109404   0.0024401  -0.0150899
    6  -0.0054315  -0.0049080   0.0069850   0.0190491  -0.0180918  -0.0283597
    7   0.0021960   0.0020247  -0.0016715   0.0066068  -0.0094232   0.0003543
    8  -0.0005480  -0.0103265  -0.0002037  -0.0248768  -0.0006166   0.0110192
    9   0.0021155   0.0023906  -0.0024476   0.0318108  -0.0052171  -0.0203841
   10  -0.0015069  -0.0062530   0.0023141  -0.0174118   0.0082181  -0.0047143
   11   0.0003919   0.0035827   0.0001473   0.0038842   0.0012336   0.0009842
   12  -0.0009436  -0.0024384   0.0016643  -0.0189687   0.0034478  -0.0002106
   13  -0.0016247   0.0009642  -0.0001433   0.0009472  -0.0022881  -0.0013600
   14   0.0001360  -0.0002593   0.0004395   0.0018721  -0.0068456   0.0003913
   15   0.0010935  -0.0008623  -0.0017522  -0.0024412   0.0041380   0.0027644
   16  -0.0011631   0.0007271   0.0009005   0.0011846   0.0001785   0.0001293
   17   0.0000962  -0.0011045  -0.0000678   0.0004667  -0.0009783  -0.0002132
   18   0.0000259   0.0020509   0.0004291   0.0009785   0.0000044   0.0004733
   19   0.0001661  -0.0016666   0.0003596   0.0003137   0.0008849   0.0010393
   20  -0.0003543   0.0021146  -0.0006571   0.0012677  -0.0014066  -0.0023001
   21   0.0000468  -0.0010388  -0.0000330   0.0006613  -0.0001996  -0.0004232
   22  -0.0007520   0.0013432   0.0005336   0.0001267   0.0000770   0.0001601
   23  -0.0002024   0.0011060  -0.0001502  -0.0001307   0.0004023  -0.0004593
   24   0.0004054  -0.0001884   0.0003695  -0.0006580  -0.0000015   0.0002805
   25  -0.1125522  -0.0748392   0.0321713   0.0020694  -0.0032415   0.0001706
   26  -0.0682998  -0.3687240   0.1667742  -0.0061594  -0.0013522   0.0047783
   27   0.0271434   0.1631981  -0.1678166   0.0086453   0.0011552  -0.0014424
   28   0.0267139   0.0342529  -0.0211258  -0.0019386  -0.0017098   0.0004515
   29   0.0382146  -0.0415277   0.0638701  -0.0003984  -0.0003599   0.0000174
   30  -0.0256287   0.0642775  -0.0303761   0.0004900   0.0019001   0.0019787
   31   0.0922339   0.0639374  -0.0123697  -0.0043353  -0.0010859   0.0021149
   32   0.0639374   0.4349784  -0.2422081  -0.0050130   0.0002839  -0.0001132
   33  -0.0123697  -0.2422081   0.1850025   0.0001240  -0.0000573  -0.0000538
   34  -0.0043353  -0.0050130   0.0001240   0.5411425  -0.0214360   0.0671202
   35  -0.0010859   0.0002839  -0.0000573  -0.0214360   0.3970622   0.1874605
   36   0.0021149  -0.0001132  -0.0000538   0.0671202   0.1874605   0.3082386
   37  -0.0002132  -0.0012356   0.0005897  -0.1525509  -0.1172605  -0.0663277
   38  -0.0008596  -0.0005018   0.0000074  -0.1203343  -0.1781176  -0.0885336
   39   0.0007748   0.0004917   0.0004173  -0.0613720  -0.0805585  -0.0677767
   40   0.0001615   0.0009028  -0.0003020  -0.2783987   0.0848128  -0.0642809
   41  -0.0002582   0.0021547  -0.0010168   0.0970586  -0.0710310   0.0085917
   42  -0.0000975  -0.0019056   0.0010520  -0.0778890   0.0115779  -0.0500775
   43  -0.0003617  -0.0009144   0.0002284  -0.0952839   0.0618856   0.0754063
   44  -0.0003235  -0.0000649  -0.0002485   0.0532059  -0.1111481  -0.1041961
   45   0.0010686   0.0012828   0.0000504   0.0792724  -0.1217793  -0.1718516
           37          38          39          40          41          42
    1  -0.0019273  -0.0023927   0.0051134   0.0012779   0.0043049  -0.0056812
    2  -0.0043532  -0.0081315   0.0103218  -0.0010557  -0.0072494   0.0118017
    3  -0.0037060  -0.0021535  -0.0007879   0.0045562   0.0098587  -0.0138746
    4   0.0009183   0.0020614  -0.0017772  -0.0001047  -0.0010718   0.0012833
    5   0.0032327   0.0034740  -0.0015633  -0.0017600   0.0002848  -0.0008703
    6   0.0004477  -0.0013934   0.0029298  -0.0014369  -0.0023738   0.0035589
    7  -0.0016636  -0.0079654   0.0048070  -0.0022289  -0.0044787   0.0040053
    8   0.0009955  -0.0055156   0.0052821   0.0016011   0.0039806  -0.0067565
    9  -0.0009821  -0.0012415  -0.0027352  -0.0029809  -0.0068924   0.0055215
   10   0.0012822   0.0027670   0.0005001   0.0024695   0.0047953  -0.0054614
   11   0.0007834   0.0034135  -0.0018436   0.0006407   0.0006641   0.0011846
   12   0.0003442  -0.0011476   0.0019894   0.0011971   0.0036176  -0.0045889
   13   0.0000108  -0.0003849   0.0000779  -0.0001320   0.0001785   0.0006498
   14   0.0002681  -0.0006045   0.0000274  -0.0000544  -0.0006779   0.0000885
   15   0.0000726   0.0010920  -0.0004601   0.0001840   0.0008860  -0.0004179
   16  -0.0001838   0.0003849   0.0001419  -0.0000332  -0.0001091   0.0002069
   17   0.0001427   0.0002027   0.0001796  -0.0000312  -0.0003137   0.0003105
   18   0.0000009   0.0002790  -0.0001422  -0.0000614  -0.0002993   0.0003189
   19  -0.0000106   0.0004170  -0.0002506   0.0000214  -0.0000678  -0.0001003
   20   0.0000694  -0.0006919   0.0003510  -0.0001732  -0.0006636   0.0003184
   21  -0.0000811   0.0002406   0.0001717  -0.0001445   0.0000161   0.0002040
   22   0.0001688   0.0000028  -0.0002003   0.0000840  -0.0002684  -0.0002228
   23  -0.0000490  -0.0000395   0.0000739  -0.0001044  -0.0000263   0.0002010
   24  -0.0000349  -0.0001207   0.0000696   0.0000049   0.0001416   0.0001619
   25  -0.0007245   0.0010825  -0.0010278  -0.0004637   0.0015973  -0.0009022
   26   0.0012327  -0.0002941   0.0005355  -0.0009033  -0.0026135   0.0019534
   27  -0.0004903   0.0010569  -0.0018807   0.0008049   0.0030568  -0.0020250
   28  -0.0006351  -0.0002664   0.0004783  -0.0010655  -0.0000418  -0.0003418
   29  -0.0009930   0.0003630  -0.0002425  -0.0002607   0.0013496  -0.0020470
   30   0.0014969  -0.0003552   0.0005480   0.0005967  -0.0028602   0.0011459
   31  -0.0002132  -0.0008596   0.0007748   0.0001615  -0.0002582  -0.0000975
   32  -0.0012356  -0.0005018   0.0004917   0.0009028   0.0021547  -0.0019056
   33   0.0005897   0.0000074   0.0004173  -0.0003020  -0.0010168   0.0010520
   34  -0.1525509  -0.1203343  -0.0613720  -0.2783987   0.0970586  -0.0778890
   35  -0.1172605  -0.1781176  -0.0805585   0.0848128  -0.0710310   0.0115779
   36  -0.0663277  -0.0885336  -0.0677767  -0.0642809   0.0085917  -0.0500775
   37   0.1575300   0.1277778   0.0697606  -0.0115561  -0.0215777  -0.0073878
   38   0.1277778   0.1878927   0.0874594   0.0073215   0.0087286   0.0063839
   39   0.0697606   0.0874594   0.0775129  -0.0033792  -0.0051991  -0.0025122
   40  -0.0115561   0.0073215  -0.0033792   0.2975924  -0.0942217   0.0689124
   41  -0.0215777   0.0087286  -0.0051991  -0.0942217   0.0704759  -0.0140303
   42  -0.0073878   0.0063839  -0.0025122   0.0689124  -0.0140303   0.0561636
   43   0.0095550  -0.0096116  -0.0136470  -0.0076239   0.0141606   0.0230265
   44   0.0109667  -0.0101777  -0.0153154   0.0032856  -0.0050630  -0.0082102
   45   0.0062971  -0.0015737  -0.0073440  -0.0036703   0.0065034   0.0053694
           43          44          45
    1  -0.0008146   0.0017055  -0.0033999
    2   0.0017162   0.0028752  -0.0060432
    3  -0.0036185  -0.0090517   0.0083021
    4   0.0006562  -0.0002128   0.0022216
    5   0.0004986   0.0040473  -0.0012636
    6   0.0020813   0.0054644  -0.0086278
    7  -0.0008936   0.0003441   0.0042610
    8   0.0012302  -0.0044509   0.0012462
    9  -0.0002667   0.0093694  -0.0084588
   10   0.0008838  -0.0016600  -0.0018288
   11  -0.0004499   0.0002493   0.0001357
   12   0.0004313  -0.0022651   0.0018098
   13   0.0006617   0.0000678  -0.0001998
   14   0.0005429  -0.0009198  -0.0007454
   15  -0.0007193   0.0019233  -0.0000515
   16  -0.0005178   0.0000731   0.0006915
   17  -0.0004976  -0.0001715   0.0003382
   18   0.0001705   0.0003198   0.0001777
   19  -0.0000946  -0.0001863   0.0000574
   20   0.0000496   0.0005935  -0.0005953
   21  -0.0002548  -0.0001310   0.0006702
   22   0.0001703   0.0002024  -0.0011195
   23   0.0000245   0.0001276   0.0004964
   24  -0.0001294  -0.0001874   0.0007574
   25   0.0004274   0.0004601  -0.0018497
   26   0.0005843  -0.0009674   0.0002847
   27   0.0001349   0.0012506  -0.0011134
   28  -0.0005655   0.0002683   0.0008473
   29  -0.0010220   0.0005079  -0.0000509
   30  -0.0001945  -0.0004864   0.0008454
   31  -0.0003617  -0.0003235   0.0010686
   32  -0.0009144  -0.0000649   0.0012828
   33   0.0002284  -0.0002485   0.0000504
   34  -0.0952839   0.0532059   0.0792724
   35   0.0618856  -0.1111481  -0.1217793
   36   0.0754063  -0.1041961  -0.1718516
   37   0.0095550   0.0109667   0.0062971
   38  -0.0096116  -0.0101777  -0.0015737
   39  -0.0136470  -0.0153154  -0.0073440
   40  -0.0076239   0.0032856  -0.0036703
   41   0.0141606  -0.0050630   0.0065034
   42   0.0230265  -0.0082102   0.0053694
   43   0.0938012  -0.0681969  -0.0826489
   44  -0.0681969   0.1245625   0.1217641
   45  -0.0826489   0.1217641   0.1794648
 Gradient time:  CPU 2805.64 s  wall 2806.03 s
 **********************************************************************
 **                                                                  **
 **                       VIBRATIONAL ANALYSIS                       **
 **                       --------------------                       **
 **                                                                  **
 **        VIBRATIONAL FREQUENCIES (CM**-1) AND NORMAL MODES         **
 **     FORCE CONSTANTS (mDYN/ANGSTROM) AND REDUCED MASSES (AMU)     **
 **                  INFRARED INTENSITIES (KM/MOL)                   **
 **                                                                  **
 **********************************************************************
 

 Mode:                 1                      2                      3
 Frequency:      -274.69                  61.05                 132.50
 Force Cnst:      0.2436                 0.0207                 0.0468
 Red. Mass:       5.4797                 9.4305                 4.5213
 IR Active:          YES                    YES                    YES
 IR Intens:      127.615                  2.509                  0.180
 Raman Active:       YES                    YES                    YES
               X      Y      Z        X      Y      Z        X      Y      Z
 C         -0.106 -0.133  0.293    0.007  0.007  0.020   -0.013  0.058 -0.061
 O         -0.052 -0.041  0.074   -0.003 -0.050  0.095   -0.011  0.113 -0.135
 C         -0.037  0.167 -0.166   -0.012  0.009 -0.060   -0.047 -0.021  0.012
 O         -0.013  0.088 -0.066    0.017 -0.079 -0.077   -0.102 -0.183  0.193
 C         -0.052  0.066 -0.025   -0.112  0.079 -0.159   -0.052  0.091 -0.156
 H         -0.047 -0.013 -0.030   -0.118  0.205 -0.166    0.024  0.259 -0.285
 H         -0.017  0.118  0.048   -0.174  0.025 -0.228   -0.214  0.000 -0.274
 H         -0.060  0.029 -0.029   -0.123  0.058 -0.173    0.021  0.105 -0.054
 C         -0.057 -0.019  0.071    0.026 -0.028  0.016    0.012 -0.016  0.034
 O          0.021  0.013  0.020    0.192 -0.311 -0.358   -0.106 -0.090  0.107
 O         -0.076 -0.041  0.019   -0.119  0.216  0.381    0.171 -0.022  0.067
 C          0.353 -0.100 -0.204    0.008  0.163  0.138    0.140  0.077 -0.074
 H          0.107  0.021 -0.034   -0.049  0.163  0.234   -0.136  0.228  0.095
 H          0.205 -0.388 -0.050    0.001  0.124  0.114    0.121 -0.136 -0.296
 H          0.511  0.156 -0.293    0.078  0.260  0.106    0.473  0.189  0.035
 TransDip  -0.304  0.096  0.170   -0.011  0.025 -0.043   -0.008  0.009  0.006

 Mode:                 4                      5                      6
 Frequency:       154.01                 175.66                 231.06
 Force Cnst:      0.0170                 0.0419                 0.1016
 Red. Mass:       1.2133                 2.3049                 3.2285
 IR Active:          YES                    YES                    YES
 IR Intens:        1.681                  6.761                 12.477
 Raman Active:       YES                    YES                    YES
               X      Y      Z        X      Y      Z        X      Y      Z
 C          0.013  0.009 -0.012    0.014 -0.051 -0.028   -0.011 -0.029 -0.095
 O          0.002 -0.008  0.017    0.026 -0.058 -0.018   -0.069  0.020 -0.143
 C          0.006 -0.006 -0.002    0.042 -0.027  0.008    0.014 -0.033 -0.026
 O          0.028  0.017 -0.061   -0.006  0.005  0.085    0.038  0.048 -0.111
 C         -0.041 -0.043  0.056    0.179  0.037 -0.094    0.058 -0.065  0.009
 H          0.034  0.042 -0.064    0.086 -0.094  0.054   -0.061 -0.235  0.198
 H         -0.262 -0.007  0.104    0.502 -0.028 -0.178    0.353 -0.043  0.033
 H          0.042 -0.192  0.184    0.077  0.283 -0.255   -0.063  0.062 -0.172
 C          0.011  0.005 -0.012   -0.037  0.014  0.012   -0.055 -0.028 -0.006
 O          0.006  0.013 -0.003   -0.008  0.065  0.015   -0.109  0.000  0.067
 O          0.011 -0.004 -0.027   -0.131  0.061  0.063   -0.065  0.004  0.047
 C         -0.029  0.020  0.040   -0.072 -0.065 -0.047    0.183  0.051  0.234
 H         -0.441  0.298  0.185   -0.364  0.167 -0.011    0.187 -0.086  0.488
 H         -0.093 -0.385 -0.272   -0.143 -0.390 -0.219    0.280  0.224  0.099
 H          0.453  0.147  0.223    0.236  0.009  0.075    0.271  0.161  0.200
 TransDip   0.021 -0.030 -0.020    0.071 -0.013 -0.042    0.064  0.004 -0.093

 Mode:                 7                      8                      9
 Frequency:       236.82                 271.61                 322.04
 Force Cnst:      0.0543                 0.1182                 0.3393
 Red. Mass:       1.6436                 2.7185                 5.5526
 IR Active:          YES                    YES                    YES
 IR Intens:        9.590                 22.648                 14.267
 Raman Active:       YES                    YES                    YES
               X      Y      Z        X      Y      Z        X      Y      Z
 C         -0.003  0.041  0.055   -0.013  0.013 -0.036    0.032 -0.061  0.067
 O         -0.008  0.085  0.007    0.050 -0.101  0.091   -0.058  0.118 -0.182
 C         -0.029  0.008  0.033   -0.027 -0.033 -0.012    0.089  0.005  0.026
 O          0.012 -0.037 -0.021   -0.059 -0.008  0.015    0.117 -0.110  0.038
 C         -0.099  0.035 -0.007    0.007 -0.113  0.111   -0.041 -0.015  0.081
 H         -0.346 -0.157  0.382   -0.178 -0.397  0.414   -0.120 -0.014  0.202
 H          0.430  0.001 -0.056    0.442 -0.028  0.217    0.021  0.012  0.120
 H         -0.368  0.278 -0.404   -0.183  0.008 -0.166   -0.128 -0.084 -0.034
 C          0.031  0.007  0.005   -0.011  0.038 -0.036    0.019 -0.131  0.086
 O          0.056 -0.014 -0.035   -0.074 -0.035 -0.021    0.181  0.039  0.056
 O          0.055 -0.035 -0.059    0.080  0.050  0.009   -0.219 -0.160 -0.009
 C         -0.023 -0.078  0.054    0.030  0.205 -0.160   -0.073  0.281 -0.142
 H         -0.130  0.020  0.039   -0.012  0.178 -0.034   -0.140  0.253  0.026
 H         -0.042 -0.203 -0.041    0.038  0.192 -0.204   -0.187  0.177  0.159
 H          0.094 -0.084  0.127    0.114  0.229 -0.128   -0.097  0.515 -0.332
 TransDip  -0.075  0.064 -0.011    0.012 -0.088  0.124   -0.015 -0.032  0.116

 Mode:                10                     11                     12
 Frequency:       339.52                 390.80                 418.38
 Force Cnst:      0.7939                 0.6145                 0.4091
 Red. Mass:      11.6895                 6.8290                 3.9663
 IR Active:          YES                    YES                    YES
 IR Intens:        6.084                  5.686                 13.506
 Raman Active:       YES                    YES                    YES
               X      Y      Z        X      Y      Z        X      Y      Z
 C         -0.017  0.031  0.122    0.090  0.098 -0.023    0.080 -0.070 -0.177
 O          0.646  0.193 -0.038    0.027 -0.006  0.104    0.071 -0.172 -0.059
 C         -0.110  0.004 -0.031    0.207  0.059  0.139    0.064  0.007  0.020
 O         -0.185  0.148  0.048    0.324 -0.091  0.006   -0.053  0.216  0.129
 C          0.041 -0.010 -0.003   -0.060  0.178  0.068   -0.219  0.073 -0.009
 H          0.113 -0.056 -0.112   -0.158  0.412  0.201   -0.407  0.357  0.253
 H          0.008 -0.008  0.001   -0.142  0.107 -0.023   -0.278  0.014 -0.084
 H          0.118  0.034  0.103   -0.167  0.062 -0.076   -0.429 -0.119 -0.297
 C         -0.165 -0.050  0.071   -0.141 -0.024 -0.091    0.059 -0.074 -0.026
 O         -0.097 -0.195 -0.102   -0.306 -0.151 -0.029    0.061  0.036  0.055
 O         -0.182 -0.172 -0.138   -0.149  0.002 -0.069   -0.036 -0.031  0.033
 C         -0.010  0.040  0.107    0.061 -0.014 -0.079    0.034 -0.017 -0.004
 H         -0.077 -0.037  0.356    0.111  0.075 -0.327    0.057 -0.049  0.020
 H         -0.004  0.069  0.121    0.096 -0.015 -0.222    0.092  0.056 -0.121
 H          0.065  0.233  0.004    0.031 -0.265  0.093    0.071 -0.068  0.053
 TransDip  -0.069  0.003  0.039    0.069  0.032  0.008    0.074 -0.030 -0.086

 Mode:                13                     14                     15
 Frequency:       481.14                 555.97                 643.17
 Force Cnst:      0.3407                 0.6261                 0.9321
 Red. Mass:       2.4979                 3.4382                 3.8244
 IR Active:          YES                    YES                    YES
 IR Intens:       57.388                 76.198                 16.179
 Raman Active:       YES                    YES                    YES
               X      Y      Z        X      Y      Z        X      Y      Z
 C         -0.025  0.082 -0.025   -0.036 -0.161  0.183   -0.084 -0.115 -0.034
 O         -0.026  0.037  0.071   -0.006  0.019 -0.083    0.086 -0.111 -0.090
 C         -0.065 -0.140  0.180    0.048 -0.174  0.180   -0.127  0.011  0.110
 O         -0.020  0.067 -0.103    0.077  0.118  0.004    0.002 -0.104 -0.113
 C          0.019 -0.019 -0.046   -0.031 -0.076 -0.051    0.003  0.279  0.186
 H          0.074  0.119 -0.139   -0.056  0.278 -0.043    0.104  0.185  0.053
 H          0.001 -0.204 -0.287   -0.135 -0.335 -0.376    0.099  0.224  0.116
 H          0.073  0.208  0.015   -0.085  0.030 -0.134    0.112  0.517  0.330
 C          0.006 -0.021  0.064   -0.037  0.080 -0.032   -0.027 -0.036 -0.045
 O          0.075  0.000  0.022   -0.076  0.008 -0.063    0.022  0.069 -0.027
 O         -0.061 -0.062  0.005    0.103  0.082 -0.013    0.067 -0.003  0.048
 C          0.044  0.043 -0.103   -0.030  0.009 -0.046   -0.036 -0.027 -0.031
 H          0.161 -0.090 -0.036   -0.110 -0.083  0.262   -0.045 -0.221  0.359
 H          0.251  0.270 -0.551   -0.127 -0.027  0.270    0.050  0.163 -0.087
 H          0.189 -0.309  0.244   -0.029  0.373 -0.318    0.088  0.153 -0.095
 TransDip   0.193 -0.113  0.094   -0.088 -0.128  0.232   -0.111 -0.014  0.064

 Mode:                16                     17                     18
 Frequency:       762.72                 769.53                 815.02
 Force Cnst:      0.9574                 0.6491                 2.8836
 Red. Mass:       2.7934                 1.8605                 7.3679
 IR Active:          YES                    YES                    YES
 IR Intens:       23.844                 40.167                  9.289
 Raman Active:       YES                    YES                    YES
               X      Y      Z        X      Y      Z        X      Y      Z
 C          0.096 -0.005  0.016    0.043  0.026  0.001   -0.009 -0.092 -0.085
 O          0.002 -0.001 -0.007   -0.030  0.011  0.036   -0.042 -0.139 -0.125
 C         -0.096 -0.042  0.077    0.015  0.013 -0.035    0.006 -0.078 -0.021
 O         -0.070  0.012 -0.063   -0.008 -0.010  0.015   -0.018 -0.012 -0.028
 C         -0.030  0.024  0.041    0.001  0.011 -0.004    0.034  0.099  0.066
 H          0.072 -0.042 -0.104   -0.001 -0.009  0.006   -0.026  0.214  0.148
 H          0.088 -0.093 -0.114   -0.004  0.052  0.051   -0.035  0.098  0.065
 H          0.063  0.337  0.155    0.004 -0.039  0.004    0.004  0.033  0.030
 C          0.200 -0.044 -0.133    0.120  0.052  0.004   -0.048  0.384  0.456
 O         -0.023 -0.086  0.111    0.004 -0.094  0.070    0.065 -0.198  0.008
 O         -0.091  0.091 -0.046   -0.064  0.068 -0.072   -0.017  0.059 -0.208
 C          0.082  0.033  0.014   -0.068 -0.087 -0.053    0.049  0.060  0.038
 H         -0.011  0.309 -0.375   -0.070 -0.428  0.619    0.057  0.261 -0.372
 H         -0.191 -0.396  0.450    0.120  0.322 -0.201   -0.074 -0.213  0.135
 H         -0.143  0.035 -0.112    0.170  0.336 -0.236   -0.113 -0.245  0.177
 TransDip   0.145  0.038 -0.045    0.180  0.035 -0.087    0.036  0.032  0.085

 Mode:                19                     20                     21
 Frequency:       843.75                 983.28                1029.34
 Force Cnst:      0.8393                 1.3678                 1.5040
 Red. Mass:       2.0009                 2.4012                 2.4093
 IR Active:          YES                    YES                    YES
 IR Intens:       23.957                 46.641                 38.315
 Raman Active:       YES                    YES                    YES
               X      Y      Z        X      Y      Z        X      Y      Z
 C         -0.014 -0.145  0.161   -0.082 -0.009 -0.039    0.273 -0.016  0.025
 O          0.013  0.013 -0.068    0.035 -0.065 -0.042   -0.052  0.013  0.007
 C          0.016  0.013 -0.050   -0.033  0.183  0.089    0.019 -0.041 -0.065
 O         -0.011 -0.007  0.014    0.119  0.014  0.054   -0.044  0.018  0.008
 C          0.004  0.022 -0.013   -0.146 -0.106 -0.069   -0.074  0.019  0.024
 H         -0.022 -0.049  0.033    0.138 -0.582 -0.455    0.072 -0.155 -0.166
 H         -0.025  0.126  0.122    0.213 -0.130 -0.102    0.139 -0.006 -0.016
 H         -0.009 -0.118 -0.022    0.133  0.350  0.274    0.099  0.334  0.239
 C          0.077 -0.006 -0.074    0.002  0.020  0.030   -0.049  0.021  0.044
 O         -0.020 -0.023  0.031    0.019 -0.022  0.017   -0.052  0.034 -0.066
 O         -0.005  0.064 -0.019    0.000  0.024 -0.024    0.011 -0.055  0.027
 C         -0.067  0.086  0.017   -0.013  0.017 -0.010   -0.003  0.059 -0.084
 H          0.112 -0.024 -0.080    0.001 -0.052  0.090    0.041 -0.301  0.467
 H          0.110  0.220 -0.434   -0.008  0.018 -0.012   -0.162 -0.200  0.256
 H          0.018 -0.545  0.546    0.000 -0.095  0.094    0.019 -0.332  0.267
 TransDip  -0.015 -0.054  0.147   -0.152  0.155  0.025    0.158 -0.115 -0.032

 Mode:                22                     23                     24
 Frequency:      1038.23                1040.84                1221.50
 Force Cnst:      0.9315                 0.9328                 4.0123
 Red. Mass:       1.4667                 1.4614                 4.5640
 IR Active:          YES                    YES                    YES
 IR Intens:       19.502                 56.055                 89.726
 Raman Active:       YES                    YES                    YES
               X      Y      Z        X      Y      Z        X      Y      Z
 C         -0.042  0.011 -0.025   -0.113  0.028 -0.040    0.248 -0.025  0.053
 O          0.008  0.003  0.009    0.019  0.000  0.013   -0.012 -0.072 -0.065
 C         -0.024 -0.059  0.104   -0.011  0.062 -0.030   -0.171  0.318  0.236
 O          0.018  0.015 -0.008    0.014 -0.024  0.001   -0.070 -0.062 -0.076
 C          0.012  0.070 -0.118    0.061 -0.043  0.055    0.139 -0.076 -0.053
 H         -0.080 -0.356  0.060   -0.014  0.357  0.117   -0.065  0.093  0.198
 H         -0.042  0.463  0.414   -0.100 -0.270 -0.247   -0.298 -0.140 -0.124
 H          0.040 -0.452 -0.032   -0.102 -0.029 -0.182   -0.172 -0.512 -0.440
 C          0.009 -0.005 -0.006    0.021 -0.017 -0.015    0.007  0.036  0.041
 O          0.005 -0.003  0.008    0.017 -0.012  0.025   -0.045  0.017 -0.048
 O         -0.003  0.005 -0.001   -0.004  0.021 -0.010   -0.001 -0.039  0.013
 C          0.029  0.025 -0.051    0.015  0.056 -0.065   -0.016 -0.013 -0.004
 H         -0.006 -0.112  0.228    0.015 -0.230  0.412   -0.001 -0.003 -0.026
 H         -0.133 -0.216  0.276   -0.190 -0.277  0.334    0.043  0.115 -0.053
 H         -0.024 -0.136  0.067   -0.037 -0.343  0.252    0.062  0.067 -0.016
 TransDip  -0.019 -0.120  0.073   -0.196 -0.062  0.124    0.174  0.249  0.005

 Mode:                25                     26                     27
 Frequency:      1362.82                1382.70                1438.88
 Force Cnst:     13.7289                 1.4231                 1.3362
 Red. Mass:      12.5461                 1.2634                 1.0954
 IR Active:          YES                    YES                    YES
 IR Intens:      152.737                 18.684                  4.222
 Raman Active:       YES                    YES                    YES
               X      Y      Z        X      Y      Z        X      Y      Z
 C         -0.201  0.071  0.027    0.004 -0.002  0.001   -0.007  0.025  0.010
 O          0.024 -0.056 -0.042    0.001 -0.003 -0.002    0.002 -0.013 -0.011
 C          0.008 -0.031 -0.037   -0.007  0.022  0.018   -0.011 -0.008 -0.003
 O          0.051  0.004  0.024    0.000 -0.002 -0.002    0.008  0.002  0.004
 C         -0.001 -0.021 -0.007    0.011 -0.126 -0.077   -0.001 -0.002  0.002
 H         -0.040  0.063  0.050   -0.191  0.505  0.186    0.024  0.037 -0.036
 H         -0.070  0.059  0.081   -0.057  0.335  0.486    0.036  0.019  0.028
 H          0.032  0.183  0.032    0.147  0.514  0.112   -0.020 -0.016 -0.024
 C          0.624  0.372  0.036   -0.012 -0.007 -0.003    0.005 -0.008  0.006
 O         -0.275  0.123 -0.217    0.006 -0.003  0.005   -0.004  0.002 -0.002
 O         -0.117 -0.380  0.204    0.002  0.007 -0.004    0.000  0.002 -0.001
 C          0.010  0.000  0.013    0.001  0.000 -0.003   -0.073  0.028  0.016
 H         -0.033  0.032  0.014   -0.007 -0.002  0.013    0.589 -0.377 -0.291
 H          0.003 -0.051 -0.035   -0.004 -0.004  0.013   -0.166 -0.261  0.022
 H         -0.099 -0.015 -0.032   -0.002 -0.010  0.002    0.471  0.289  0.102
 TransDip   0.294  0.265 -0.004   -0.038  0.084  0.103   -0.014 -0.008  0.064

 Mode:                28                     29                     30
 Frequency:      1468.18                1486.04                1492.78
 Force Cnst:      1.3697                 1.4247                 1.3992
 Red. Mass:       1.0785                 1.0950                 1.0657
 IR Active:          YES                    YES                    YES
 IR Intens:        9.688                 43.695                 12.534
 Raman Active:       YES                    YES                    YES
               X      Y      Z        X      Y      Z        X      Y      Z
 C         -0.009  0.001 -0.003   -0.003 -0.001  0.003   -0.001  0.023  0.015
 O          0.002  0.000  0.001    0.001 -0.002 -0.002    0.001 -0.014 -0.011
 C          0.013  0.000  0.002    0.025  0.021  0.028   -0.003  0.013 -0.010
 O         -0.008 -0.001 -0.004   -0.027 -0.009 -0.017    0.000 -0.002  0.001
 C         -0.013 -0.002  0.001   -0.059 -0.013  0.000   -0.005  0.021 -0.056
 H          0.016  0.090 -0.044    0.094  0.464 -0.240   -0.375 -0.027  0.514
 H          0.141  0.007  0.008    0.693  0.042  0.058    0.084 -0.188 -0.290
 H          0.014 -0.075  0.031    0.033 -0.412  0.115    0.392 -0.164  0.529
 C          0.006  0.004 -0.001    0.013 -0.010  0.012   -0.004  0.002 -0.008
 O         -0.002  0.000 -0.002   -0.009  0.005 -0.007    0.004 -0.002  0.004
 O         -0.001 -0.004  0.002    0.000  0.002 -0.003    0.000 -0.001  0.002
 C         -0.025 -0.052 -0.050    0.010  0.009  0.010   -0.004  0.000  0.003
 H         -0.181  0.169 -0.168    0.007 -0.014  0.049    0.026 -0.019 -0.009
 H          0.022  0.503  0.550    0.002 -0.094 -0.105   -0.007 -0.012 -0.008
 H          0.483 -0.046  0.274   -0.124 -0.009 -0.061    0.015  0.012  0.007
 TransDip   0.059  0.037  0.071    0.170 -0.009  0.125   -0.069  0.037  0.082

 Mode:                31                     32                     33
 Frequency:      1513.07                1600.44                1610.48
 Force Cnst:     12.9685                12.3252                17.7812
 Red. Mass:       9.6144                 8.1671                11.6360
 IR Active:          YES                    YES                    YES
 IR Intens:      374.161                541.344                523.921
 Raman Active:       YES                    YES                    YES
               X      Y      Z        X      Y      Z        X      Y      Z
 C          0.026  0.586  0.368   -0.114  0.096  0.071    0.042 -0.058 -0.013
 O          0.000 -0.334 -0.267    0.011 -0.058 -0.048   -0.004  0.021  0.016
 C         -0.080 -0.136 -0.080    0.600  0.120  0.198   -0.019  0.022  0.008
 O          0.056  0.029  0.034   -0.340 -0.085 -0.157    0.009 -0.001  0.001
 C          0.015  0.001  0.022   -0.033 -0.001 -0.005   -0.014 -0.008  0.007
 H          0.136  0.089 -0.169    0.016 -0.408 -0.025    0.071  0.125 -0.119
 H          0.040  0.084  0.120   -0.274 -0.024 -0.011    0.177  0.014  0.012
 H         -0.118 -0.031 -0.177    0.030  0.335  0.027   -0.030 -0.111 -0.032
 C         -0.075 -0.038 -0.058   -0.015  0.017 -0.020   -0.285  0.572 -0.514
 O          0.045 -0.015  0.037    0.010 -0.005  0.009    0.221 -0.163  0.218
 O          0.001  0.012  0.000    0.000 -0.004  0.004   -0.029 -0.251  0.153
 C          0.003 -0.020  0.007    0.001 -0.003  0.004   -0.009  0.009  0.005
 H         -0.221  0.088  0.197    0.083 -0.088  0.075    0.084 -0.079 -0.007
 H          0.035  0.115  0.010   -0.059 -0.141  0.060   -0.055 -0.106  0.009
 H         -0.165 -0.155  0.038    0.021  0.003 -0.007    0.025  0.013  0.022
 TransDip  -0.296  0.243  0.487    0.334 -0.054  0.664   -0.256  0.479 -0.492

 Mode:                34                     35                     36
 Frequency:      2995.37                3004.84                3058.38
 Force Cnst:      5.4553                 5.5344                 6.0453
 Red. Mass:       1.0320                 1.0403                 1.0970
 IR Active:          YES                    YES                    YES
 IR Intens:       78.697                135.806                 55.689
 Raman Active:       YES                    YES                    YES
               X      Y      Z        X      Y      Z        X      Y      Z
 C          0.000  0.000  0.000    0.001 -0.001  0.000    0.000  0.000  0.001
 O          0.000  0.000  0.000    0.000  0.000  0.000    0.000  0.000  0.000
 C          0.001 -0.001  0.000   -0.003  0.000 -0.001   -0.001  0.000  0.001
 O         -0.001  0.000  0.000    0.001  0.000  0.000    0.000  0.000  0.000
 C         -0.012  0.011  0.011   -0.033  0.032  0.024   -0.039 -0.052  0.062
 H         -0.090 -0.001 -0.056   -0.220 -0.003 -0.136    0.061 -0.010  0.065
 H         -0.004 -0.119  0.101   -0.008 -0.359  0.297   -0.017  0.666 -0.521
 H          0.240 -0.004 -0.170    0.626 -0.014 -0.443    0.427 -0.026 -0.291
 C          0.000  0.000  0.000    0.000  0.000  0.000    0.000 -0.001  0.000
 O          0.000  0.000  0.000    0.000  0.000  0.000    0.000  0.000  0.000
 O          0.000  0.000  0.000    0.000  0.000  0.000    0.000  0.001  0.000
 C          0.017 -0.007 -0.038   -0.006  0.002  0.014    0.001 -0.002 -0.001
 H         -0.213 -0.254 -0.160    0.084  0.100  0.061    0.016  0.016  0.010
 H          0.332 -0.112  0.059   -0.133  0.045 -0.026   -0.022  0.005 -0.006
 H         -0.327  0.453  0.549    0.120 -0.166 -0.204    0.000  0.002 -0.004
 TransDip   0.064  0.115 -0.252   -0.243  0.224  0.174   -0.116 -0.130  0.164

 Mode:                37                     38                     39
 Frequency:      3123.77                3134.76                3182.68
 Force Cnst:      6.2900                 6.3433                 6.6321
 Red. Mass:       1.0941                 1.0956                 1.1113
 IR Active:          YES                    YES                    YES
 IR Intens:       49.909                 30.793                 16.063
 Raman Active:       YES                    YES                    YES
               X      Y      Z        X      Y      Z        X      Y      Z
 C          0.000  0.001  0.001    0.000  0.000  0.000    0.000  0.000  0.000
 O          0.000 -0.001  0.000    0.000  0.000  0.000    0.000  0.000  0.000
 C          0.000  0.001  0.000   -0.002  0.001  0.000   -0.001  0.000 -0.001
 O          0.000  0.000  0.000    0.001  0.000  0.000    0.001  0.000  0.000
 C         -0.014  0.001 -0.006   -0.075  0.009 -0.046   -0.001  0.000  0.000
 H          0.128  0.005  0.087    0.786  0.041  0.524    0.010  0.002  0.007
 H         -0.003 -0.013  0.008   -0.014 -0.162  0.122    0.000 -0.004  0.003
 H          0.042 -0.002 -0.031    0.134 -0.001 -0.110    0.003  0.000 -0.002
 C          0.000  0.000  0.000    0.000  0.000  0.000    0.000  0.000  0.000
 O          0.000  0.000  0.000    0.000  0.000  0.000    0.000  0.000  0.000
 O          0.000  0.000  0.000    0.000  0.000  0.000    0.000  0.000  0.000
 C         -0.031  0.072  0.037    0.007 -0.012 -0.006   -0.088 -0.021 -0.035
 H         -0.378 -0.410 -0.224    0.053  0.060  0.031    0.416  0.490  0.260
 H          0.537 -0.175  0.148   -0.093  0.030 -0.025    0.649 -0.244  0.168
 H          0.216 -0.278 -0.372   -0.040  0.051  0.069   -0.013 -0.002 -0.003
 TransDip  -0.055  0.192  0.106   -0.137 -0.031 -0.109   -0.103 -0.049 -0.059

 STANDARD THERMODYNAMIC QUANTITIES AT   298.15 K  AND     1.00 ATM

   This Molecule has  1 Imaginary Frequencies
   Zero point vibrational energy:       64.006 kcal/mol

   Atom    1 Element C  Has Mass   12.00000
   Atom    2 Element O  Has Mass   15.99491
   Atom    3 Element C  Has Mass   12.00000
   Atom    4 Element O  Has Mass   15.99491
   Atom    5 Element C  Has Mass   12.00000
   Atom    6 Element H  Has Mass    1.00783
   Atom    7 Element H  Has Mass    1.00783
   Atom    8 Element H  Has Mass    1.00783
   Atom    9 Element C  Has Mass   12.00000
   Atom   10 Element O  Has Mass   15.99491
   Atom   11 Element O  Has Mass   15.99491
   Atom   12 Element C  Has Mass   12.00000
   Atom   13 Element H  Has Mass    1.00783
   Atom   14 Element H  Has Mass    1.00783
   Atom   15 Element H  Has Mass    1.00783
   Molecular Mass:   130.026620 amu
   Principal axes and moments of inertia in amu*Bohr^2:
                             1           2           3
    Eigenvalues --      802.04304  1318.44576  1463.26741
          X               0.99911    -0.02645    -0.03284
          Y               0.02513     0.99888    -0.04000
          Z               0.03387     0.03914     0.99866
   Rotational Symmetry Number is   1
   The Molecule is an Asymmetric Top
   Translational Enthalpy:        0.889 kcal/mol
   Rotational Enthalpy:           0.889 kcal/mol
   Vibrational Enthalpy:         68.183 kcal/mol
   gas constant (RT):             0.592 kcal/mol
   Translational Entropy:        40.501  cal/mol.K
   Rotational Entropy:           28.827  cal/mol.K
   Vibrational Entropy:          24.984  cal/mol.K

   Total Enthalpy:               70.553 kcal/mol
   Total Entropy:                94.311  cal/mol.K
Archival summary:
1\1\bt2600-16\FREQ\ProcedureUnspecified\6-31+G*\456(2-,1)\emavera\WedJun712:14:142017WedJun712:14:142017\0\\#,FREQ,ProcedureUnspecified,6-31+G*,\\-2,1\C\O,1,1.26617\C,1,1.5017,2,121.943\O,3,1.25352,1,124.466,2,-2.48106,0\C,3,1.53584,1,118.145,2,171.912,0\H,5,1.09286,3,113.598,1,18.0948,0\H,5,1.09911,3,108.067,1,-101.565,0\H,5,1.10058,3,108.683,1,140.954,0\C,1,1.581,2,117.021,3,157.215,0\O,9,1.26259,1,119.51,2,76.7357,0\O,9,1.27083,1,113.492,2,-99.6496,0\C,1,2.07829,2,107.888,3,-84.219,0\H,12,1.09235,1,98.3004,2,32.8614,0\H,12,1.0924,1,91.5138,2,-81.6579,0\H,12,1.10058,1,126.448,2,159.194,0\\\@

 Total job time:  3011.30s(wall), 3011.25s(cpu) 
 Wed Jun  7 12:14:14 2017

        *************************************************************
        *                                                           *
        *  Thank you very much for using Q-Chem.  Have a nice day.  *
        *                                                           *
        *************************************************************


0 sent ACK to 0 
now end server 0 ... 
cleanup process ... done

Running Job 2 of 2 irc_1020.qcin
qchem irc_1020.qcin_35956.1 /tmp/irc_1020.qcin/ 1
/programs/x86_64/lib/qchem-4.3.2/bin/mpi/mpirun_qchem -machinefile /var/spool/torque/aux//119448.vali -np 1 /programs/x86_64/lib/qchem-4.3.2/exe/qcprog.exe irc_1020.qcin_35956.1 /tmp/irc_1020.qcin/

Process 0 of 1 is on bt2600-16.csail.mit.edu - thread support 0
initial socket setup ...start
initial socket setup ...done 
now start server 0 ... 

cmd = ssh thor /programs/x86_64/lib/qchem-4.3.2/bin/get_hostid 1960918573 > /tmp/irc_1020.qcin/lic.dat
                  Welcome to Q-Chem
     A Quantum Leap Into The Future Of Chemistry


 Q-Chem 4.3, Q-Chem, Inc., Pleasanton, CA (2015)

 Y. Shao,  Z. Gan,  E. Epifanovsky,  A. T. B. Gilbert,  M. Wormit,  
 J. Kussmann,  A. W. Lange,  A. Behn,  J. Deng,  X. Feng,  D. Ghosh,  
 M. Goldey,  P. R. Horn,  L. D. Jacobson,  I. Kaliman,  R. Z. Khaliullin,  
 T. Kus,  A. Landau,  J. Liu,  E. I. Proynov,  Y. M. Rhee,  R. M. Richard,  
 M. A. Rohrdanz,  R. P. Steele,  E. J. Sundstrom,  H. L. Woodcock III,  
 P. M. Zimmerman,  D. Zuev,  B. Albrecht,  E. Alguire,  B. Austin,  
 S. A. Baeppler,  G. J. O. Beran,  Y. A. Bernard,  E. Berquist,  
 K. Brandhorst,  K. B. Bravaya,  S. T. Brown,  D. Casanova,  C.-M. Chang,  
 Y. Chen,  S. H. Chien,  K. D. Closser,  D. L. Crittenden,  M. Diedenhofen,  
 R. A. DiStasio Jr.,  H. Do,  A. D. Dutoi,  R. G. Edgar,  P.-T. Fang,  
 S. Fatehi,  Q. Feng,  L. Fusti-Molnar,  A. Ghysels,  
 A. Golubeva-Zadorozhnaya,  J. Gomes,  A. Gunina,  M. W. D. Hanson-Heine,  
 P. H. P. Harbach,  A. W. Hauser,  E. G. Hohenstein,  Z. C. Holden,  K. Hui,  
 T.-C. Jagau,  H. Ji,  B. Kaduk,  K. Khistyaev,  Jaehoon Kim,  Jihan Kim,  
 R. A. King,  P. Klunzinger,  D. Kosenkov,  T. Kowalczyk,  C. M. Krauter,  
 K. U. Lao,  A. Laurent,  K. V. Lawler,  S. Lehtola,  S. V. Levchenko,  
 C. Y. Lin,  Y.-S. Lin,  F. Liu,  E. Livshits,  R. C. Lochan,  A. Luenser,  
 P. Manohar,  S. F. Manzer,  S.-P. Mao,  N. Mardirossian,  A. V. Marenich,  
 L. A. Martinez-Martinez,  S. A. Maurer,  N. J. Mayhall,  K. Nanda,  
 C. M. Oana,  R. Olivares-Amaya,  D. P. O'Neill,  J. A. Parkhill,  
 T. M. Perrine,  R. Peverati,  P. A. Pieniazek,  F. Plasser,  A. Prociuk,  
 D. R. Rehn,  E. Rosta,  N. J. Russ,  N. Sergueev,  S. M. Sharada,  
 S. Sharma,  D. W. Small,  A. Sodt,  T. Stauch,  T. Stein,  D. Stuck,  
 Y.-C. Su,  A. J. W. Thom,  T. Tsuchimochi,  L. Vogt,  O. Vydrov,  T. Wang,  
 M. A. Watson,  J. Wenzel,  A. White,  C. F. Williams,  V. Vanovschi,  
 S. Yeganeh,  S. R. Yost,  Z.-Q. You,  I. Y. Zhang,  X. Zhang,  Y. Zhao,  
 B. R. Brooks,  G. K. L. Chan,  D. M. Chipman,  C. J. Cramer,  
 W. A. Goddard III,  M. S. Gordon,  W. J. Hehre,  A. Klamt,  
 H. F. Schaefer III,  M. W. Schmidt,  C. D. Sherrill,  D. G. Truhlar,  
 A. Warshel,  X. Xu,  A. Aspuru-Guzik,  R. Baer,  A. T. Bell,  N. A. Besley,  
 J.-D. Chai,  A. Dreuw,  B. D. Dunietz,  T. R. Furlani,  S. R. Gwaltney,  
 C.-P. Hsu,  Y. Jung,  J. Kong,  D. S. Lambrecht,  W. Liang,  C. Ochsenfeld,  
 V. A. Rassolov,  L. V. Slipchenko,  J. E. Subotnik,  T. Van Voorhis,  
 J. M. Herbert,  A. I. Krylov,  P. M. W. Gill,  M. Head-Gordon

 Contributors to earlier versions of Q-Chem not listed above: 
 R. D. Adamson,  J. Baker,  E. F. C. Byrd,  A. K. Chakraborty,  C.-L. Cheng,  
 H. Dachsel,  R. J. Doerksen,  G. Hawkins,  A. Heyden,  S. Hirata,  
 G. Kedziora,  F. J. Keil,  C. Kelley,  P. P. Korambath,  W. Kurlancheek,  
 A. M. Lee,  M. S. Lee,  D. Liotard,  I. Lotan,  P. E. Maslen,  N. Nair,  
 D. Neuhauser,  R. Olson,  B. Peters,  J. Ritchie,  N. E. Schultz,  
 N. Shenvi,  A. C. Simmonett,  K. S. Thanthiriwatte,  Q. Wu,  W. Zhang

 Please cite Q-Chem as follows:
 Y. Shao et al., Mol. Phys. 113, 184-215 (2015)
 DOI: 10.1080/00268976.2014.952696

 Q-Chem 4.3.0 for Intel X86 Linux

 Parts of Q-Chem use Armadillo 5.200.1 (Boston Tea Smuggler).
 http://arma.sourceforge.net/

 Q-Chem begins on Wed Jun  7 12:14:17 2017  

Host: 
0

     Scratch files written to /tmp/irc_1020.qcin//
 Oct1215 13750_ 19228  19214 4150   
 Parallel job on  1  processors
Processing $rem in /programs/x86_64/lib/qchem-4.3.2/config/preferences.
 MEM_TOTAL  2000 

Checking the input file for inconsistencies... 	...done.

--------------------------------------------------------------
User input:
--------------------------------------------------------------
$molecule
READ
$end

$rem
RPATH_MAX_CYCLES 120
jobtype rpath
basis 6-31+G(d)
exchange b3lyp
pdb_print 2
scf_guess read
$end
--------------------------------------------------------------
 ----------------------------------------------------------------
             Standard Nuclear Orientation (Angstroms)
    I     Atom           X                Y                Z
 ----------------------------------------------------------------
    1      C       0.0797945966    -0.4909783694    -0.4223075321
    2      O       0.1313474063    -1.4572744400    -1.2388799730
    3      C      -1.1864532086     0.2798716911    -0.1824897396
    4      O      -2.2889245969     0.0175537506    -0.7182751888
    5      C      -1.1098133330     1.5491098778     0.6788843141
    6      H      -0.2072507241     1.6077002662     1.2923045011
    7      H      -1.1176993056     2.4184439439     0.0063906875
    8      H      -2.0042769838     1.5956880274     1.3184393032
    9      C       1.4423313860     0.2349101035    -0.0815183592
   10      O       2.2586348364    -0.3142909509     0.7097877997
   11      O       1.6143739870     1.3173156007    -0.7248038300
   12      C      -0.6241447946    -1.2240138460     1.3905438455
   13      H      -1.2884339969    -1.9983756046     1.0002662336
   14      H       0.3695936068    -1.5869677565     1.6627396904
   15      H      -1.0856735372    -0.6363173016     2.1985539493
 ----------------------------------------------------------------
 Molecular Point Group                 C1    NOp =  1
 Largest Abelian Subgroup              C1    NOp =  1
 Nuclear Repulsion Energy =   448.3253641179 hartrees
 There are       35 alpha and       35 beta electrons
 Requested basis set is 6-31+G(d)
 There are 57 shells and 183 basis functions

 Total QAlloc Memory Limit   2000 MB
 Mega-Array Size        61 MB
 MEM_STATIC part        62 MB
In calcReactionPath2: starting direction = 1

                       Distance Matrix (Angstroms)
             C (  1)   O (  2)   C (  3)   O (  4)   C (  5)   H (  6)
   O (  2)  1.266166
   C (  3)  1.501701  2.422857
   O (  4)  2.440703  2.881643  1.253523
   C (  5)  2.605715  3.775797  1.535840  2.384957
   H (  6)  2.725205  3.989438  2.212913  3.302175  1.092857
   H (  7)  3.175297  4.258170  2.147998  2.767884  1.099114  1.771947
   H (  8)  3.424577  4.518999  2.157081  2.592246  1.100575  1.797256
   C (  9)  1.580999  2.433445  2.631107  3.791434  2.969642  2.548149
   O ( 10)  2.461748  3.103074  3.608022  4.778052  3.849631  3.180246
   O ( 11)  2.390892  3.187788  3.035626  4.114020  3.073315  2.733380
   C ( 12)  2.078293  2.745733  2.247732  2.959747  2.903885  2.863923
   H ( 13)  2.483548  2.705983  2.568993  2.831667  3.566489  3.775980
   H ( 14)  2.373310  2.914271  3.051433  3.912984  3.604386  3.267396
   H ( 15)  2.871995  3.737788  2.553219  3.222305  2.661967  2.574593
             H (  7)   H (  8)   C (  9)   O ( 10)   O ( 11)   C ( 12)
   H (  8)  1.784494
   C (  9)  3.365903  3.961150
   O ( 10)  4.400255  4.710721  1.262592
   O ( 11)  3.035021  4.164969  1.270833  2.266112
   C ( 12)  3.927719  3.140172  2.926730  3.098620  3.992996
   H ( 13)  4.530478  3.678445  3.689838  3.937285  4.732438  1.092352
   H ( 14)  4.582451  3.985361  2.740883  2.469069  3.960392  1.092402
   H ( 15)  3.760076  2.569101  3.514054  3.674850  4.433166  1.100580
             H ( 13)   H ( 14)
   H ( 14)  1.832262
   H ( 15)  1.825434  1.818966
 
 A cutoff of  1.0D-11 yielded   1549 shell pairs
 There are     16683 function pairs
 
 -------------------------------------------------------
[...]
 There are     16584 function pairs
 Smallest overlap matrix eigenvalue = 2.81E-05
 Guess MOs from SCF MO coefficient file
 Reading MOs from coefficient file
 Reading MOs from coefficient file
 A restricted hybrid HF-DFT SCF calculation will be
 performed using Pulay DIIS extrapolation
 Exchange:     0.2000 Hartree-Fock + 0.0800 Slater + 0.7200 B88
 Correlation:  0.1900 VWN1RPA + 0.8100 LYP
 Using SG-1 standard quadrature grid
 SCF converges when DIIS error is below 1.0E-08
 CPU 0.00 s  wall 0.00 s
 CPU 6.89 s  wall 6.89 s
 ---------------------------------------
  Cycle       Energy         DIIS Error
 ---------------------------------------
    1    -495.0111482652      2.72E-04
 CPU 0.00 s  wall 0.00 s
 CPU 5.14 s  wall 5.14 s
    2    -495.0153874359      8.10E-05
 CPU 0.00 s  wall 0.00 s
 CPU 5.14 s  wall 5.14 s
    3    -495.0153675104      1.17E-04
 CPU 0.00 s  wall 0.00 s
 CPU 5.11 s  wall 5.11 s
    4    -495.0154142248      2.80E-05
 CPU 0.00 s  wall 0.00 s
 CPU 5.03 s  wall 5.03 s
    5    -495.0154166967      7.62E-06
 CPU 0.00 s  wall 0.00 s
 CPU 4.94 s  wall 4.94 s
    6    -495.0154168908      2.59E-06
 CPU 0.00 s  wall 0.00 s
 CPU 4.82 s  wall 4.82 s
    7    -495.0154169100      6.55E-07
 CPU 0.00 s  wall 0.00 s
 CPU 4.73 s  wall 4.73 s
    8    -495.0154169120      3.10E-07
 CPU 0.00 s  wall 0.00 s
 CPU 4.60 s  wall 4.60 s
    9    -495.0154169109      1.18E-07
 CPU 0.00 s  wall 0.00 s
 CPU 4.53 s  wall 4.53 s
   10    -495.0154169114      2.30E-08
 CPU 0.00 s  wall 0.00 s
 CPU 4.24 s  wall 4.24 s
   11    -495.0154169105      7.79E-09 Convergence criterion met
 ---------------------------------------
 SCF time:  CPU 125.81 s  wall 125.60 s
 SCF   energy in the final basis set = -495.0154169105
 Total energy in the final basis set = -495.0154169105
 
 --------------------------------------------------------------
 
                    Orbital Energies (a.u.)
 --------------------------------------------------------------
 
 Alpha MOs
 -- Occupied --
-18.842 -18.806 -18.806 -18.742  -9.977  -9.960  -9.932  -9.890
 -9.889  -0.738  -0.713  -0.641  -0.615  -0.449  -0.395  -0.337
 -0.249  -0.176  -0.154  -0.144  -0.132  -0.125  -0.115  -0.105
 -0.088  -0.072  -0.065  -0.041  -0.034   0.008   0.042   0.057
  0.073   0.113   0.122
 -- Virtual --
  0.233   0.240   0.268   0.282   0.287   0.293   0.301   0.304
  0.306   0.311   0.331   0.341   0.343   0.350   0.354   0.361
  0.372   0.383   0.403   0.406   0.432   0.468   0.473   0.481
  0.489   0.504   0.513   0.525   0.528   0.542   0.551   0.554
  0.566   0.573   0.576   0.589   0.592   0.602   0.606   0.615
  0.618   0.629   0.644   0.661   0.670   0.688   0.693   0.714
  0.730   0.784   0.805   0.826   0.930   0.956   0.978   1.021
  1.029   1.044   1.055   1.098   1.102   1.119   1.145   1.162
  1.178   1.215   1.254   1.259   1.285   1.299   1.321   1.365
  1.400   1.407   1.459   1.515   1.531   1.561   1.604   1.609
  1.622   1.632   1.649   1.664   1.673   1.689   1.709   1.723
  1.750   1.785   1.791   1.843   1.880   1.896   1.933   1.947
  1.994   2.023   2.051   2.059   2.132   2.135   2.155   2.175
  2.183   2.217   2.224   2.242   2.261   2.293   2.299   2.337
  2.371   2.382   2.403   2.439   2.474   2.492   2.555   2.566
  2.577   2.611   2.644   2.708   2.733   2.796   2.842   2.886
  2.962   3.010   3.046   3.102   3.164   3.212   3.348   3.402
  3.419   3.456   3.527   4.467   4.554   4.628   4.655   4.661
  4.778   4.785   4.897   5.080
 --------------------------------------------------------------
 
          Ground-State Mulliken Net Atomic Charges

     Atom                 Charge (a.u.)
  ----------------------------------------
      1 C                     0.335164
      2 O                    -0.466106
      3 C                     0.041447
      4 O                    -0.679933
      5 C                    -0.698426
      6 H                     0.182748
      7 H                     0.200120
      8 H                     0.165158
      9 C                     0.217566
     10 O                    -0.592516
     11 O                    -0.593241
     12 C                    -0.673894
     13 H                     0.199479
     14 H                     0.222225
     15 H                     0.140209
  ----------------------------------------
  Sum of atomic charges =    -2.000000

 -----------------------------------------------------------------
                    Cartesian Multipole Moments
 -----------------------------------------------------------------
    Charge (ESU x 10^10)
                -9.6064
    Dipole Moment (Debye)
         X      -0.6432      Y       0.1334      Z       3.1461
       Tot       3.2139
    Quadrupole Moments (Debye-Ang)
        XX    -107.9821     XY      -7.0314     YY     -74.9719
        XZ      -2.5546     YZ       0.0457     ZZ     -74.7774
    Octopole Moments (Debye-Ang^2)
       XXX       3.9928    XXY      -7.9391    XYY      -6.8852
       YYY     -11.8166    XXZ       1.6230    XYZ       8.2153
       YYZ       2.6088    XZZ       0.8138    YZZ       7.6505
       ZZZ      -5.9532
    Hexadecapole Moments (Debye-Ang^3)
      XXXX   -1174.0861   XXXY     -74.7578   XXYY    -261.0285
      XYYY     -52.8692   YYYY    -474.3824   XXXZ      22.7454
      XXYZ      15.7304   XYYZ      38.4507   YYYZ      -1.2922
      XXZZ    -248.9327   XYZZ     -21.9550   YYZZ    -171.4892
      XZZZ      69.5489   YZZZ       2.3768   ZZZZ    -453.5420
 -----------------------------------------------------------------
 Calculating analytic gradient of the SCF energy
 CPU 0.00 s  wall 0.00 s
 CPU 8.31 s  wall 8.30 s
 Gradient of SCF Energy
            1           2           3           4           5           6
    1  -0.0006924   0.0003641   0.0006252  -0.0004274   0.0005930  -0.0006245
    2   0.0027857  -0.0045829   0.0011718   0.0002179  -0.0012199   0.0006060
    3   0.0037001  -0.0018079  -0.0002165  -0.0004388   0.0002047  -0.0000092
            7           8           9          10          11          12
    1  -0.0005097  -0.0010663  -0.0000900   0.0002252  -0.0006861  -0.0017543
    2   0.0012982   0.0002307  -0.0004351  -0.0005557   0.0003739   0.0010367
    3  -0.0006781   0.0001997   0.0002107   0.0005187   0.0008316   0.0001948
           13          14          15
    1  -0.0005961   0.0019083   0.0027310
    2   0.0004159  -0.0011203  -0.0002230
    3  -0.0003727  -0.0018873  -0.0004496
 Max gradient component =       4.583E-03
 RMS gradient           =       1.317E-03
 Gradient time:  CPU 64.83 s  wall 64.88 s
 IRC --- Status = 3.  Assess initial corrector step
 IRC --- bisector search: b =  0.000000 E =     -495.015429 G.B =  -0.005611
 IRC --- bisector search: b =  0.014613 E =     -495.015417 G.B =   0.007250
 IRC --- performed gradient/energy interpolation
 IRC --- bisector search:  estimate b(min) =   6.358260721037004E-003
 ----------------------------------------------------------------
             Standard Nuclear Orientation (Angstroms)
    I     Atom           X                Y                Z
 ----------------------------------------------------------------
    1      C       0.2291191244    -0.3683278178    -0.6355048153
    2      O       0.2456781905    -1.2195002038    -1.5236994244
    3      C      -1.1058861860    -0.0453953833     0.1711611121
    4      O      -2.2503376806    -0.2340087677    -0.4994386395
    5      C      -1.0217016058     1.4121587627     0.7511022004
    6      H      -0.1282943547     1.6198977324     1.3602264120
    7      H      -1.0548726671     2.1367887572    -0.0716670575
    8      H      -1.9218120365     1.5517945436     1.3689978029
    9      C       1.5693718519     0.3168159932    -0.2356995909
   10      O       2.2610302827    -0.2716016482     0.6461086700
   11      O       1.8342931913     1.3904960539    -0.8468942262
   12      C      -0.9315148153    -1.0593080834     1.3927567988
   13      H      -1.4231163757    -1.9878556050     1.0800987108
   14      H       0.1196976249    -1.2620221875     1.6404946896
   15      H      -1.4382491982    -0.6675571599     2.2915930646
 ----------------------------------------------------------------
 Molecular Point Group                 C1    NOp =  1
 Largest Abelian Subgroup              C1    NOp =  1
 Nuclear Repulsion Energy =   447.5349595471 hartrees
 There are       35 alpha and       35 beta electrons

                       Distance Matrix (Angstroms)
             C (  1)   O (  2)   C (  3)   O (  4)   C (  5)   H (  6)
   O (  2)  1.230308
   C (  3)  1.592870  2.465320
   O (  4)  2.486818  2.872351  1.339794
   C (  5)  2.580187  3.702243  1.570950  2.404842
   H (  6)  2.839670  4.064365  2.267766  3.376150  1.101074
   H (  7)  2.870916  3.881302  2.196246  2.689388  1.096877  1.782146
   H (  8)  3.511610  4.554754  2.156748  2.605394  1.100678  1.794832
   C (  9)  1.557416  2.402369  2.730154  3.868223  2.981143  2.669658
   O ( 10)  2.404278  3.109377  3.407766  4.654689  3.690854  3.129953
   O ( 11)  2.390550  3.129512  3.426788  4.409530  3.272731  2.962390
   C ( 12)  2.436877  3.149153  1.597097  2.449656  2.554996  2.797207
   H ( 13)  2.880286  3.186693  2.167938  2.501042  3.439400  3.843295
   H ( 14)  2.447619  3.166987  2.267417  3.354578  3.040568  2.906116
   H ( 15)  3.381946  4.206746  2.234677  2.938930  2.621420  2.795689
             H (  7)   H (  8)   C (  9)   O ( 10)   O ( 11)   C ( 12)
   H (  8)  1.780258
   C (  9)  3.197791  4.035913
   O ( 10)  4.160620  4.619904  1.265785
   O ( 11)  3.083052  4.364003  1.263539  2.274584
   C ( 12)  3.517782  2.792689  3.286339  3.371989  4.320564
   H ( 13)  4.298239  3.586263  3.999728  4.087397  5.073192  1.096188
   H ( 14)  3.982842  3.486981  2.848577  2.560282  4.020298  1.098870
   H ( 15)  3.687320  2.451640  4.049936  4.068055  4.979480  1.103701
             H ( 13)   H ( 14)
   H ( 14)  1.794757
   H ( 15)  1.791964  1.790116
 
 Applying Cartesian multipole field
    Component          Value
    ---------          -----
     (2,0,0)        1.00000E-11
     (0,2,0)        2.00000E-11
     (0,0,2)       -3.00000E-11
 Nucleus-field energy     =     0.0000000035 hartrees
 Requested basis set is 6-31+G(d)
 There are 57 shells and 183 basis functions
 A cutoff of  1.0D-11 yielded   1550 shell pairs
 There are     16584 function pairs
 Smallest overlap matrix eigenvalue = 2.83E-05
 Guess MOs from SCF MO coefficient file
 Reading MOs from coefficient file
 Reading MOs from coefficient file
 A restricted hybrid HF-DFT SCF calculation will be
 performed using Pulay DIIS extrapolation
 Exchange:     0.2000 Hartree-Fock + 0.0800 Slater + 0.7200 B88
 Correlation:  0.1900 VWN1RPA + 0.8100 LYP
 Using SG-1 standard quadrature grid
 SCF converges when DIIS error is below 1.0E-08
 CPU 0.00 s  wall 0.00 s
 CPU 6.90 s  wall 6.90 s
 ---------------------------------------
  Cycle       Energy         DIIS Error
 ---------------------------------------
    1    -495.0178855992      1.54E-04
 CPU 0.00 s  wall 0.00 s
 CPU 5.12 s  wall 5.12 s
    2    -495.0154375557      4.56E-05
 CPU 0.00 s  wall 0.00 s
 CPU 5.12 s  wall 5.12 s
    3    -495.0154314007      6.57E-05
 CPU 0.00 s  wall 0.00 s
 CPU 5.08 s  wall 5.08 s
    4    -495.0154460793      1.57E-05
 CPU 0.00 s  wall 0.00 s
 CPU 5.00 s  wall 5.00 s
    5    -495.0154468542      4.29E-06
 CPU 0.00 s  wall 0.00 s
 CPU 4.90 s  wall 4.90 s
    6    -495.0154469152      1.46E-06
 CPU 0.00 s  wall 0.00 s
 CPU 4.77 s  wall 4.77 s
    7    -495.0154469234      3.78E-07
 CPU 0.00 s  wall 0.00 s
 CPU 4.67 s  wall 4.67 s
    8    -495.0154469228      1.80E-07
 CPU 0.00 s  wall 0.00 s
 CPU 4.50 s  wall 4.50 s
    9    -495.0154469234      6.60E-08
 CPU 0.00 s  wall 0.00 s
 CPU 4.42 s  wall 4.42 s
   10    -495.0154469230      1.32E-08
 CPU 0.00 s  wall 0.00 s
 CPU 4.08 s  wall 4.08 s
   11    -495.0154469234      4.82E-09 Convergence criterion met
 ---------------------------------------
 SCF time:  CPU 124.29 s  wall 124.06 s
 SCF   energy in the final basis set = -495.0154469234
 Total energy in the final basis set = -495.0154469234
 
 --------------------------------------------------------------
 
                    Orbital Energies (a.u.)
 --------------------------------------------------------------
 
 Alpha MOs
 -- Occupied --
-18.842 -18.806 -18.805 -18.742  -9.977  -9.960  -9.932  -9.889
 -9.888  -0.739  -0.714  -0.641  -0.616  -0.448  -0.395  -0.337
 -0.249  -0.176  -0.154  -0.144  -0.132  -0.125  -0.115  -0.105
 -0.088  -0.073  -0.065  -0.041  -0.034   0.007   0.042   0.057
  0.073   0.113   0.122
 -- Virtual --
  0.233   0.240   0.268   0.282   0.287   0.293   0.301   0.304
  0.306   0.311   0.331   0.342   0.343   0.350   0.354   0.361
  0.372   0.383   0.403   0.406   0.432   0.468   0.473   0.482
  0.489   0.505   0.514   0.525   0.528   0.541   0.551   0.554
  0.566   0.573   0.576   0.589   0.592   0.602   0.606   0.614
  0.618   0.629   0.644   0.661   0.670   0.688   0.694   0.714
  0.731   0.784   0.807   0.826   0.930   0.956   0.978   1.022
  1.029   1.044   1.055   1.098   1.102   1.119   1.145   1.163
  1.178   1.215   1.255   1.259   1.285   1.300   1.321   1.365
  1.401   1.408   1.459   1.515   1.531   1.561   1.604   1.610
  1.622   1.632   1.649   1.664   1.673   1.689   1.709   1.723
  1.750   1.786   1.791   1.843   1.879   1.896   1.932   1.948
  1.994   2.023   2.051   2.059   2.132   2.135   2.155   2.175
  2.183   2.217   2.224   2.242   2.261   2.293   2.300   2.337
  2.372   2.382   2.403   2.440   2.474   2.492   2.556   2.568
  2.580   2.611   2.645   2.709   2.734   2.797   2.842   2.886
  2.963   3.011   3.046   3.103   3.166   3.212   3.349   3.403
  3.420   3.458   3.529   4.467   4.555   4.629   4.655   4.661
  4.778   4.786   4.898   5.080
 --------------------------------------------------------------
 
          Ground-State Mulliken Net Atomic Charges

     Atom                 Charge (a.u.)
  ----------------------------------------
      1 C                     0.335066
      2 O                    -0.464848
      3 C                     0.041147
      4 O                    -0.679668
      5 C                    -0.700255
      6 H                     0.182453
      7 H                     0.200403
      8 H                     0.165415
      9 C                     0.217589
     10 O                    -0.592775
     11 O                    -0.593476
     12 C                    -0.672852
     13 H                     0.199398
     14 H                     0.222823
     15 H                     0.139579
  ----------------------------------------
  Sum of atomic charges =    -2.000000

 -----------------------------------------------------------------
                    Cartesian Multipole Moments
 -----------------------------------------------------------------
    Charge (ESU x 10^10)
                -9.6064
    Dipole Moment (Debye)
         X      -0.6420      Y       0.1152      Z       3.1204
       Tot       3.1878
    Quadrupole Moments (Debye-Ang)
        XX    -107.9808     XY      -7.0399     YY     -74.9777
        XZ      -2.5289     YZ       0.0539     ZZ     -74.7767
    Octopole Moments (Debye-Ang^2)
       XXX       3.9323    XXY      -7.9584    XYY      -6.8444
       YYY     -11.9292    XXZ       1.5683    XYZ       8.2201
       YYZ       2.5109    XZZ       0.8725    YZZ       7.6083
       ZZZ      -6.1283
    Hexadecapole Moments (Debye-Ang^3)
      XXXX   -1174.0645   XXXY     -74.8105   XXYY    -261.0974
      XYYY     -52.8358   YYYY    -474.6852   XXXZ      22.8736
      XXYZ      15.7530   XYYZ      38.5412   YYYZ      -1.3073
      XXZZ    -248.9953   XYZZ     -22.0067   YYZZ    -171.5644
      XZZZ      69.7654   YZZZ       2.4818   ZZZZ    -453.6680
 -----------------------------------------------------------------
 Calculating analytic gradient of the SCF energy
 CPU 0.00 s  wall 0.00 s
 CPU 8.30 s  wall 8.30 s
 Gradient of SCF Energy
            1           2           3           4           5           6
    1   0.0001383   0.0001199  -0.0002730  -0.0000607  -0.0005425  -0.0004778
    2  -0.0000829  -0.0017467   0.0001325   0.0005375   0.0008493   0.0004791
    3   0.0005795   0.0012263  -0.0003996  -0.0002838  -0.0001528   0.0000382
            7           8           9          10          11          12
    1  -0.0004187  -0.0002613  -0.0002804   0.0000865  -0.0006592   0.0009761
    2   0.0003957  -0.0000029  -0.0002947  -0.0003695   0.0000407  -0.0001568
    3   0.0002678  -0.0003084   0.0005012   0.0001494   0.0009570  -0.0007169
           13          14          15
    1  -0.0006570   0.0003083   0.0020016
    2   0.0006921  -0.0008013   0.0003279
    3  -0.0003267  -0.0021299   0.0005986
 Max gradient component =       2.130E-03
 RMS gradient           =       6.962E-04
 Gradient time:  CPU 64.77 s  wall 64.82 s
 IRC --- Status = 4.  Checking bisector search.
 IRC --- Bisector search finished successfully.
 ------------------------------------------------------------------------
 Reaction path following.  The coordinates are cartesian              
 Step  29 E=    -495.015447 |G|=  0.004670 S_lin= 2.1519 S_tot= 2.4467
 ------------------------------------------------------------------------
  IRC -- convergence criterion reached.
 ----------------------------------------------------------------
             Standard Nuclear Orientation (Angstroms)
    I     Atom           X                Y                Z
 ----------------------------------------------------------------
    1      C       0.0797945966    -0.4909783694    -0.4223075321
    2      O       0.1313474063    -1.4572744400    -1.2388799730
    3      C      -1.1864532086     0.2798716911    -0.1824897396
    4      O      -2.2889245969     0.0175537506    -0.7182751888
    5      C      -1.1098133330     1.5491098778     0.6788843141
    6      H      -0.2072507241     1.6077002662     1.2923045011
    7      H      -1.1176993056     2.4184439439     0.0063906875
    8      H      -2.0042769838     1.5956880274     1.3184393032
    9      C       1.4423313860     0.2349101035    -0.0815183592
   10      O       2.2586348364    -0.3142909509     0.7097877997
   11      O       1.6143739870     1.3173156007    -0.7248038300
   12      C      -0.6241447946    -1.2240138460     1.3905438455
   13      H      -1.2884339969    -1.9983756046     1.0002662336
   14      H       0.3695936068    -1.5869677565     1.6627396904
   15      H      -1.0856735372    -0.6363173016     2.1985539493
 ----------------------------------------------------------------
 Molecular Point Group                 C1    NOp =  1
 Largest Abelian Subgroup              C1    NOp =  1
 Nuclear Repulsion Energy =   448.3253641179 hartrees
 There are       35 alpha and       35 beta electrons
Archival summary:
1\1\bt2600-16\JobtypUnspecified\ProcedureUnspecified\6-31+G*\456(2-,1)\emavera\WedJun722:05:342017WedJun722:05:342017\0\\#,JobtypUnspecified,ProcedureUnspecified,6-31+G*,\\-2,1\C\O,1,1.26617\C,1,1.5017,2,121.943\O,3,1.25352,1,124.466,2,-2.48106,0\C,3,1.53584,1,118.145,2,171.912,0\H,5,1.09286,3,113.598,1,18.0948,0\H,5,1.09911,3,108.067,1,-101.565,0\H,5,1.10058,3,108.683,1,140.954,0\C,1,1.581,2,117.021,3,157.215,0\O,9,1.26259,1,119.51,2,76.7357,0\O,9,1.27083,1,113.492,2,-99.6496,0\C,1,2.07829,2,107.888,3,-84.219,0\H,12,1.09235,1,98.3004,2,32.8614,0\H,12,1.0924,1,91.5138,2,-81.6579,0\H,12,1.10058,1,126.448,2,159.194,0\\\@

 Total job time:  35476.79s(wall), 35512.34s(cpu) 
 Wed Jun  7 22:05:34 2017

        *************************************************************
        *                                                           *
        *  Thank you very much for using Q-Chem.  Have a nice day.  *
        *                                                           *
        *************************************************************


0 sent ACK to 0 
now end server 0 ... 
cleanup process ... done
