
Running Job 1 of 3 ts1020.qcin
qchem ts1020.qcin_15334.0 /tmp/ts1020.qcin/ 1
/programs/x86_64/lib/qchem-4.3.2/bin/mpi/mpirun_qchem -machinefile /var/spool/torque/aux//119442.vali -np 1 /programs/x86_64/lib/qchem-4.3.2/exe/qcprog.exe ts1020.qcin_15334.0 /tmp/ts1020.qcin/

Process 0 of 1 is on bt2600-11.csail.mit.edu - thread support 0
initial socket setup ...start
initial socket setup ...done 
now start server 0 ... 

cmd = ssh thor /programs/x86_64/lib/qchem-4.3.2/bin/get_hostid 263380682 > /tmp/ts1020.qcin/lic.dat
                  Welcome to Q-Chem
     A Quantum Leap Into The Future Of Chemistry


 Q-Chem 4.3, Q-Chem, Inc., Pleasanton, CA (2015)

 Y. Shao,  Z. Gan,  E. Epifanovsky,  A. T. B. Gilbert,  M. Wormit,  
 J. Kussmann,  A. W. Lange,  A. Behn,  J. Deng,  X. Feng,  D. Ghosh,  
 M. Goldey,  P. R. Horn,  L. D. Jacobson,  I. Kaliman,  R. Z. Khaliullin,  
 T. Kus,  A. Landau,  J. Liu,  E. I. Proynov,  Y. M. Rhee,  R. M. Richard,  
 M. A. Rohrdanz,  R. P. Steele,  E. J. Sundstrom,  H. L. Woodcock III,  
 P. M. Zimmerman,  D. Zuev,  B. Albrecht,  E. Alguire,  B. Austin,  
 S. A. Baeppler,  G. J. O. Beran,  Y. A. Bernard,  E. Berquist,  
 K. Brandhorst,  K. B. Bravaya,  S. T. Brown,  D. Casanova,  C.-M. Chang,  
 Y. Chen,  S. H. Chien,  K. D. Closser,  D. L. Crittenden,  M. Diedenhofen,  
 R. A. DiStasio Jr.,  H. Do,  A. D. Dutoi,  R. G. Edgar,  P.-T. Fang,  
 S. Fatehi,  Q. Feng,  L. Fusti-Molnar,  A. Ghysels,  
 A. Golubeva-Zadorozhnaya,  J. Gomes,  A. Gunina,  M. W. D. Hanson-Heine,  
 P. H. P. Harbach,  A. W. Hauser,  E. G. Hohenstein,  Z. C. Holden,  K. Hui,  
 T.-C. Jagau,  H. Ji,  B. Kaduk,  K. Khistyaev,  Jaehoon Kim,  Jihan Kim,  
 R. A. King,  P. Klunzinger,  D. Kosenkov,  T. Kowalczyk,  C. M. Krauter,  
 K. U. Lao,  A. Laurent,  K. V. Lawler,  S. Lehtola,  S. V. Levchenko,  
 C. Y. Lin,  Y.-S. Lin,  F. Liu,  E. Livshits,  R. C. Lochan,  A. Luenser,  
 P. Manohar,  S. F. Manzer,  S.-P. Mao,  N. Mardirossian,  A. V. Marenich,  
 L. A. Martinez-Martinez,  S. A. Maurer,  N. J. Mayhall,  K. Nanda,  
 C. M. Oana,  R. Olivares-Amaya,  D. P. O'Neill,  J. A. Parkhill,  
 T. M. Perrine,  R. Peverati,  P. A. Pieniazek,  F. Plasser,  A. Prociuk,  
 D. R. Rehn,  E. Rosta,  N. J. Russ,  N. Sergueev,  S. M. Sharada,  
 S. Sharma,  D. W. Small,  A. Sodt,  T. Stauch,  T. Stein,  D. Stuck,  
 Y.-C. Su,  A. J. W. Thom,  T. Tsuchimochi,  L. Vogt,  O. Vydrov,  T. Wang,  
 M. A. Watson,  J. Wenzel,  A. White,  C. F. Williams,  V. Vanovschi,  
 S. Yeganeh,  S. R. Yost,  Z.-Q. You,  I. Y. Zhang,  X. Zhang,  Y. Zhao,  
 B. R. Brooks,  G. K. L. Chan,  D. M. Chipman,  C. J. Cramer,  
 W. A. Goddard III,  M. S. Gordon,  W. J. Hehre,  A. Klamt,  
 H. F. Schaefer III,  M. W. Schmidt,  C. D. Sherrill,  D. G. Truhlar,  
 A. Warshel,  X. Xu,  A. Aspuru-Guzik,  R. Baer,  A. T. Bell,  N. A. Besley,  
 J.-D. Chai,  A. Dreuw,  B. D. Dunietz,  T. R. Furlani,  S. R. Gwaltney,  
 C.-P. Hsu,  Y. Jung,  J. Kong,  D. S. Lambrecht,  W. Liang,  C. Ochsenfeld,  
 V. A. Rassolov,  L. V. Slipchenko,  J. E. Subotnik,  T. Van Voorhis,  
 J. M. Herbert,  A. I. Krylov,  P. M. W. Gill,  M. Head-Gordon

 Contributors to earlier versions of Q-Chem not listed above: 
 R. D. Adamson,  J. Baker,  E. F. C. Byrd,  A. K. Chakraborty,  C.-L. Cheng,  
 H. Dachsel,  R. J. Doerksen,  G. Hawkins,  A. Heyden,  S. Hirata,  
 G. Kedziora,  F. J. Keil,  C. Kelley,  P. P. Korambath,  W. Kurlancheek,  
 A. M. Lee,  M. S. Lee,  D. Liotard,  I. Lotan,  P. E. Maslen,  N. Nair,  
 D. Neuhauser,  R. Olson,  B. Peters,  J. Ritchie,  N. E. Schultz,  
 N. Shenvi,  A. C. Simmonett,  K. S. Thanthiriwatte,  Q. Wu,  W. Zhang

 Please cite Q-Chem as follows:
 Y. Shao et al., Mol. Phys. 113, 184-215 (2015)
 DOI: 10.1080/00268976.2014.952696

 Q-Chem 4.3.0 for Intel X86 Linux

 Parts of Q-Chem use Armadillo 5.200.1 (Boston Tea Smuggler).
 http://arma.sourceforge.net/

 Q-Chem begins on Tue Jun  6 16:36:04 2017  

Host: 
0

     Scratch files written to /tmp/ts1020.qcin//
 Oct1215 13750_ 19228  19214 4150   
 Parallel job on  1  processors
Processing $rem in /programs/x86_64/lib/qchem-4.3.2/config/preferences.
 MEM_TOTAL  2000 

Checking the input file for inconsistencies... 	...done.

--------------------------------------------------------------
User input:
--------------------------------------------------------------
$comment
Title
$end

$molecule
-2 1
C         3.482        -1.293          2.592
O         4.604        -1.526          2.079
O         3.194        -1.569          3.821
C         2.365        -0.592          1.813
C         2.021        -2.059          0.354
O         1.230        -0.402          2.463
C         2.527        -0.076          0.488
O         1.515         0.612         -0.000
C         3.800         0.166         -0.353
H         3.536         0.012         -1.506
H         4.716        -0.436         -0.146
H         4.057         1.252         -0.092
H         1.102        -1.867         -0.317
H         1.762        -2.664          1.271
H         2.920        -2.432         -0.218
$end


$solvent
CavityRadius    30
Dielectric     78.39
$end

$molecule
READ
$end

$rem
jobtype          FREQ
exchange         b3lyp
basis            6-31+G(d)
pdb_print 2
SOLVENT_METHOD ONSAGER
NBO TRUE
$end

--------------------------------------------------------------
 ----------------------------------------------------------------
             Standard Nuclear Orientation (Angstroms)
    I     Atom           X                Y                Z
 ----------------------------------------------------------------
    1      C       1.4443178987     0.3399763867     0.1175183684
    2      O       1.3861915473     1.5854743008    -0.0297849694
    3      O       2.5552890317    -0.3067465155     0.2481079130
    4      C       0.1832827162    -0.5229904412     0.2224446400
    5      C      -0.5743939460    -0.2214054105    -1.7099317584
    6      O       0.3752949930    -1.8214214521     0.3774710743
    7      C      -1.1434311969     0.0130862121     0.2464657692
    8      O      -2.1177324414    -0.8455239599     0.4681810314
    9      C      -1.6442814239     1.4609924689     0.4441790001
   10      H      -2.6558283965     1.6069304331    -0.1708785848
   11      H      -0.9757578227     2.3131712398     0.1773896880
   12      H      -1.7974706503     1.5089095082     1.5789930898
   13      H      -1.4793913321    -0.8833399271    -1.9828574385
   14      H       0.4076764532    -0.7057798885    -1.9836361538
   15      H      -0.6845375853     0.8478943518    -2.0548671105
 ----------------------------------------------------------------
 Molecular Point Group                 C1    NOp =  1
 Largest Abelian Subgroup              C1    NOp =  1
 Nuclear Repulsion Energy =   447.9140965449 hartrees
 There are       35 alpha and       35 beta electrons
 Requested basis set is 6-31+G(d)
 There are 57 shells and 183 basis functions

 Total QAlloc Memory Limit   2000 MB
 Mega-Array Size        61 MB
 MEM_STATIC part        62 MB

                       Distance Matrix (Angstroms)
             C (  1)   O (  2)   O (  3)   C (  4)   C (  5)   O (  6)
   O (  2)  1.255525
   O (  3)  1.292115  2.241543
   C (  4)  1.531643  2.440539  2.381981
   C (  5)  2.780274  3.151445  3.692711  2.097405
   O (  6)  2.425289  3.576969  2.657696  1.321675  2.796285
   C (  7)  2.611500  2.991272  3.712523  1.431127  2.050922  2.385186
   O (  8)  3.770488  4.293624  4.709123  2.336468  2.741458  2.678767
   C (  9)  3.301943  3.069838  4.560673  2.706537  2.935186  3.854527
   H ( 10)  4.301110  4.044539  5.567176  3.570969  3.169206  4.608904
   H ( 11)  3.123115  2.480175  4.397415  3.064183  3.185460  4.354335
   H ( 12)  3.743195  3.567875  4.900447  3.145191  3.912408  4.153994
   H ( 13)  3.802125  4.256889  4.646322  2.785264  1.153978  3.144997
   H ( 14)  2.565752  3.166208  3.122843  2.224985  1.128714  2.611615
   H ( 15)  3.083710  2.988796  4.139247  2.796173  1.128944  3.763610
             C (  7)   O (  8)   C (  9)   H ( 10)   H ( 11)   H ( 12)
   O (  8)  1.317434
   C (  9)  1.544789  2.354729
   H ( 10)  2.236484  2.590845  1.192821
   H ( 11)  2.307223  3.371353  1.115486  1.855453
   H ( 12)  2.107341  2.622943  1.146109  1.951522  1.812882
   H ( 13)  2.426176  2.533081  3.378400  3.296774  3.890758  4.302419
   H ( 14)  2.809993  3.522588  3.847040  4.244971  3.962069  4.739182
   H ( 15)  2.490707  3.359685  2.746312  2.830466  2.686041  3.857525
             H ( 13)   H ( 14)
   H ( 14)  1.895403
   H ( 15)  1.906345  1.900502
 
 A cutoff of  1.0D-11 yielded   1551 shell pairs
 There are     16597 function pairs
 
 -------------------------------------------------------
 OpenMP Integral Computing Module                       
 Release: version 1.0, May 2013, Q-Chem Inc. Pittsburgh 
 -------------------------------------------------------
 Integral Job Info:
 Integral job number is                      11
 Integral operator is                         1
 short-range coefficients                     0
 long-range coefficients              100000000
 Omega coefficients                           0
 if combine SR and LR in K                    0
 Integral screening is                        0
 Integral computing path is                   2
 max size of driver memory is            800000
 size of driver memory is                593474
 size of scratch memory is              2260544
 max col of scratch BK array               1296
 max len of scratch array in speh3          155
 max len of scratch index in speh4           18
 max int batch size is                      520
 min int batch size is                       52
 fixed nKL is                                52
 max L of basis functions is                  2
 order of int derivative is                   0
 number of shells is                         57
 number of basis is                         183
 number of cartesian basis is               183
 number of contracted shell pairs          1551
 number of primitive shell pairs           5364
 maxK2 (contraction) of shell pair           36
 max number of K2 of shell pair               1
 max number of CS2 of shell pair            196
 max number of PS2 of shell pair           1176
 mem total for path MDJ                   44296
 -------------------------------------------------------
 Smallest overlap matrix eigenvalue = 1.32E-05
 Placing solute cavity origin at the center of mass
 Center of Onsager solute cavity (Angst): (   0.054742,  -0.035716,   0.033806)
 Solvent multipole matrices computed through 15th order
 Guess from superposition of atomic densities
 Warning:  Energy on first SCF cycle will be non-variational
 A restricted hybrid HF-DFT SCF calculation will be
 performed using Pulay DIIS extrapolation
 Kirkwood-Onsager solvation model will be applied
 Exchange:     0.2000 Hartree-Fock + 0.0800 Slater + 0.7200 B88
 Correlation:  0.1900 VWN1RPA + 0.8100 LYP
 Using SG-1 standard quadrature grid
 SCF converges when DIIS error is below 1.0E-08
 Kirkwood-Onsager SCRF: 
 Maximum multipole order     = 15
 Solvent dielectric constant = 78.3900
 Cavity radius               = 56.6917 bohr
 Born term (E_born)          = -0.03482849 a.u. = -21.8552 kcal/mol
 CPU 0.00 s  wall 0.00 s
 Inaccurate integrated density:
   Number of electrons =    70
   Numerical integral  =    67.999720469345
   Relative error      =    -2.8575421867 %
 CPU 4.85 s  wall 4.85 s
 ---------------------------------------
  Cycle       Energy         DIIS Error
 ---------------------------------------
    1    -495.9550487520      4.65E-02
 CPU 0.00 s  wall 0.00 s
 CPU 5.26 s  wall 5.26 s
    2    -494.5449986437      1.07E-02
 CPU 0.00 s  wall 0.00 s
 CPU 5.31 s  wall 5.31 s
    3    -488.7888579070      3.30E-02
 CPU 0.00 s  wall 0.00 s
 CPU 5.27 s  wall 5.27 s
    4    -494.6967351529      8.10E-03
 CPU 0.00 s  wall 0.00 s
 CPU 5.23 s  wall 5.23 s
    5    -494.9624653169      1.87E-03
 CPU 0.00 s  wall 0.00 s
 CPU 5.23 s  wall 5.23 s
    6    -494.9689600133      1.66E-03
 CPU 0.00 s  wall 0.00 s
 CPU 5.23 s  wall 5.22 s
    7    -494.9769649615      6.51E-04
 CPU 0.00 s  wall 0.00 s
 CPU 5.16 s  wall 5.16 s
    8    -494.9782380865      2.18E-04
 CPU 0.00 s  wall 0.00 s
 CPU 5.11 s  wall 5.11 s
    9    -494.9784127385      4.34E-05
 CPU 0.00 s  wall 0.00 s
 CPU 5.08 s  wall 5.08 s
   10    -494.9784183616      2.81E-05
 CPU 0.00 s  wall 0.00 s
 CPU 5.03 s  wall 5.03 s
   11    -494.9784209317      8.13E-06
 CPU 0.00 s  wall 0.00 s
 CPU 4.95 s  wall 4.95 s
   12    -494.9784211132      4.16E-06
 CPU 0.00 s  wall 0.00 s
 CPU 4.89 s  wall 4.89 s
   13    -494.9784211764      8.47E-07
 CPU 0.00 s  wall 0.00 s
 CPU 4.78 s  wall 4.78 s
   14    -494.9784211805      3.17E-07
 CPU 0.00 s  wall 0.00 s
 CPU 4.65 s  wall 4.65 s
   15    -494.9784211814      8.33E-08
 CPU 0.00 s  wall 0.00 s
 CPU 4.54 s  wall 4.54 s
   16    -494.9784211808      3.57E-08
 CPU 0.00 s  wall 0.00 s
 CPU 4.33 s  wall 4.33 s
   17    -494.9784211803      6.17E-09 Convergence criterion met
 ---------------------------------------
 SCF time:  CPU 204.79 s  wall 204.17 s
 SCF   energy in the final basis set = -494.9784211803
 Total energy in the final basis set = -494.9784211803
 
 --------------------------------------------------------------
 
                    Orbital Energies (a.u.)
 --------------------------------------------------------------
 
 Alpha MOs
 -- Occupied --
-18.789 -18.783 -18.783 -18.775  -9.963  -9.960  -9.947  -9.932
 -9.915  -0.709  -0.670  -0.631  -0.605  -0.450  -0.403  -0.347
 -0.255  -0.180  -0.155  -0.136  -0.130  -0.118  -0.107  -0.092
 -0.082  -0.068  -0.062  -0.044   0.028   0.045   0.066   0.074
  0.087   0.100   0.106
 -- Virtual --
  0.225   0.235   0.265   0.273   0.280   0.287   0.294   0.302
  0.307   0.316   0.332   0.335   0.340   0.341   0.356   0.367
  0.374   0.384   0.402   0.407   0.414   0.430   0.456   0.466
  0.489   0.492   0.500   0.522   0.532   0.535   0.545   0.557
  0.565   0.571   0.574   0.583   0.591   0.593   0.605   0.618
  0.626   0.633   0.639   0.666   0.682   0.688   0.690   0.727
  0.748   0.786   0.823   0.912   0.927   0.935   0.981   1.000
  1.019   1.052   1.068   1.084   1.119   1.147   1.193   1.203
  1.207   1.227   1.251   1.268   1.301   1.314   1.350   1.368
  1.389   1.429   1.453   1.511   1.550   1.563   1.582   1.585
  1.612   1.650   1.661   1.673   1.678   1.690   1.701   1.713
  1.736   1.763   1.774   1.801   1.822   1.859   1.905   1.969
  2.017   2.031   2.068   2.084   2.099   2.127   2.147   2.158
  2.179   2.202   2.217   2.258   2.269   2.293   2.308   2.352
  2.360   2.406   2.434   2.459   2.480   2.493   2.528   2.561
  2.577   2.613   2.653   2.715   2.720   2.762   2.804   2.853
  2.895   2.935   3.037   3.061   3.215   3.343   3.362   3.456
  3.465   3.541   3.604   4.443   4.515   4.564   4.615   4.738
  4.801   4.908   5.009   5.256
 --------------------------------------------------------------
 
          Ground-State Mulliken Net Atomic Charges

     Atom                 Charge (a.u.)
  ----------------------------------------
      1 C                     0.463570
      2 O                    -0.644190
      3 O                    -0.606316
      4 C                    -0.168294
      5 C                    -0.797389
      6 O                    -0.532497
      7 C                     0.449794
      8 O                    -0.571281
      9 C                    -0.730375
     10 H                     0.151006
     11 H                     0.222524
     12 H                     0.167849
     13 H                     0.193027
     14 H                     0.222562
     15 H                     0.180012
  ----------------------------------------
  Sum of atomic charges =    -2.000000

 -----------------------------------------------------------------
                    Cartesian Multipole Moments
 -----------------------------------------------------------------
    Charge (ESU x 10^10)
                -9.6064
    Dipole Moment (Debye)
         X      -3.1640      Y       3.1801      Z      -0.5208
       Tot       4.5161
    Quadrupole Moments (Debye-Ang)
        XX    -104.7934     XY      -7.1989     YY     -84.1842
        XZ       0.3108     YZ       3.5586     ZZ     -67.7785
    Octopole Moments (Debye-Ang^2)
       XXX       1.3931    XXY       1.9588    XYY      -1.5051
       YYY      -8.7160    XXZ      -7.9371    XYZ       0.3641
       YYZ      -1.1120    XZZ      14.3327    YZZ      -1.0794
       ZZZ      39.8573
    Hexadecapole Moments (Debye-Ang^3)
      XXXX   -1210.2503   XXXY     -13.4894   XXYY    -285.7020
      XYYY      -2.7967   YYYY    -581.4493   XXXZ       6.2586
      XXYZ       4.8164   XYYZ       3.8231   YYYZ       0.6248
      XXZZ    -220.9221   XYZZ       1.1747   YYZZ    -143.5617
      XZZZ     -25.1873   YZZZ      -6.0001   ZZZZ    -405.6478
 -----------------------------------------------------------------

 Begin NBO analysis for the ground state 


 *********************************** NBO 5.0 ***********************************
             N A T U R A L   A T O M I C   O R B I T A L   A N D
          N A T U R A L   B O N D   O R B I T A L   A N A L Y S I S
 *******************************************************************************
  (c) Copyright 1996-2002 Board of Regents of the University of Wisconsin System
      on behalf of the Theoretical Chemistry Institute.  All Rights Reserved.

          Cite this program as:

          NBO 5.0.  E. D. Glendening, J. K. Badenhoop, A. E. Reed,
          J. E. Carpenter, J. A. Bohmann, C. M. Morales, and F. Weinhold
          (Theoretical Chemistry Institute, University of Wisconsin,
          Madison, WI, 2001); http://www.chem.wisc.edu/~nbo5

       /PRINT  / : Print level set to  1
  This is a closed-shell NBO calculation

 Job title: Starting NBO analysis.                                          

 Storage needed:      168297 in NPA,      134749 in NBO (     7716796 available)


 NATURAL POPULATIONS:  Natural atomic orbital occupancies 
                                                          
  NAO Atom No lang   Type(AO)    Occupancy      Energy    
 ---------------------------------------------------------
   1    C  1  s      Cor( 1s)     1.99936      -9.84177
   2    C  1  s      Val( 2s)     0.79811       0.18946
   3    C  1  s      Ryd( 3s)     0.01292       1.12754
   4    C  1  s      Ryd( 4s)     0.00249       1.72290
   5    C  1  s      Ryd( 5s)     0.00025       3.31862
   6    C  1  px     Val( 2p)     0.86643       0.31068
   7    C  1  px     Ryd( 4p)     0.01259       1.12200
   8    C  1  px     Ryd( 3p)     0.00158       0.74598
   9    C  1  py     Val( 2p)     0.78075       0.33709
  10    C  1  py     Ryd( 4p)     0.01917       1.14936
  11    C  1  py     Ryd( 3p)     0.00074       0.66299
  12    C  1  pz     Val( 2p)     0.78910       0.22709
  13    C  1  pz     Ryd( 4p)     0.00258       0.98918
  14    C  1  pz     Ryd( 3p)     0.00048       0.48118
  15    C  1  dxy    Ryd( 3d)     0.00423       2.90564
  16    C  1  dxz    Ryd( 3d)     0.00133       2.33323
  17    C  1  dyz    Ryd( 3d)     0.00254       2.47618
  18    C  1  dx2y2  Ryd( 3d)     0.00378       2.85599
  19    C  1  dz2    Ryd( 3d)     0.00047       2.66581
 
  20    O  2  s      Cor( 1s)     1.99979     -18.53860
  21    O  2  s      Val( 2s)     1.72111      -0.55317
  22    O  2  s      Ryd( 3s)     0.00239       0.91340
  23    O  2  s      Ryd( 4s)     0.00024       2.51386
  24    O  2  s      Ryd( 5s)     0.00008       4.12508
  25    O  2  px     Val( 2p)     1.88738       0.07900
  26    O  2  px     Ryd( 3p)     0.00451       0.86454
  27    O  2  px     Ryd( 4p)     0.00016       1.53880
  28    O  2  py     Val( 2p)     1.57476       0.04246
  29    O  2  py     Ryd( 3p)     0.00093       0.95568
  30    O  2  py     Ryd( 4p)     0.00023       1.75245
  31    O  2  pz     Val( 2p)     1.60623       0.08048
  32    O  2  pz     Ryd( 3p)     0.00223       0.73831
  33    O  2  pz     Ryd( 4p)     0.00009       1.40709
  34    O  2  dxy    Ryd( 3d)     0.00286       2.49401
  35    O  2  dxz    Ryd( 3d)     0.00008       2.17248
  36    O  2  dyz    Ryd( 3d)     0.00305       2.37527
  37    O  2  dx2y2  Ryd( 3d)     0.00332       2.72558
  38    O  2  dz2    Ryd( 3d)     0.00101       2.38294
 
  39    O  3  s      Cor( 1s)     1.99982     -18.53779
  40    O  3  s      Val( 2s)     1.74384      -0.54054
  41    O  3  s      Ryd( 3s)     0.00193       1.02731
  42    O  3  s      Ryd( 4s)     0.00029       2.33093
  43    O  3  s      Ryd( 5s)     0.00006       4.19234
  44    O  3  px     Val( 2p)     1.62710       0.07746
  45    O  3  px     Ryd( 3p)     0.00155       0.94488
  46    O  3  px     Ryd( 4p)     0.00013       1.57337
  47    O  3  py     Val( 2p)     1.81557       0.09324
  48    O  3  py     Ryd( 3p)     0.00305       0.82348
  49    O  3  py     Ryd( 4p)     0.00014       1.55062
  50    O  3  pz     Val( 2p)     1.59526       0.09993
  51    O  3  pz     Ryd( 3p)     0.00197       0.75089
  52    O  3  pz     Ryd( 4p)     0.00003       1.42357
  53    O  3  dxy    Ryd( 3d)     0.00261       2.68161
  54    O  3  dxz    Ryd( 3d)     0.00203       2.33154
  55    O  3  dyz    Ryd( 3d)     0.00067       2.24856
  56    O  3  dx2y2  Ryd( 3d)     0.00262       2.57467
  57    O  3  dz2    Ryd( 3d)     0.00080       2.41775
 
  58    C  4  s      Cor( 1s)     1.99866      -9.81740
  59    C  4  s      Val( 2s)     0.92271       0.11495
  60    C  4  s      Ryd( 4s)     0.00798       1.82664
  61    C  4  s      Ryd( 5s)     0.00079       2.99349
  62    C  4  s      Ryd( 3s)     0.00020       1.13505
  63    C  4  px     Val( 2p)     1.06439       0.24567
  64    C  4  px     Ryd( 4p)     0.00554       1.28542
  65    C  4  px     Ryd( 3p)     0.00059       0.76382
  66    C  4  py     Val( 2p)     0.86958       0.27020
  67    C  4  py     Ryd( 4p)     0.01614       1.26246
  68    C  4  py     Ryd( 3p)     0.00079       0.66526
  69    C  4  pz     Val( 2p)     0.81178       0.20431
  70    C  4  pz     Ryd( 4p)     0.00248       1.04779
  71    C  4  pz     Ryd( 3p)     0.00139       0.56667
  72    C  4  dxy    Ryd( 3d)     0.00348       2.72976
  73    C  4  dxz    Ryd( 3d)     0.00088       2.22784
  74    C  4  dyz    Ryd( 3d)     0.00189       2.32479
  75    C  4  dx2y2  Ryd( 3d)     0.00150       2.79249
  76    C  4  dz2    Ryd( 3d)     0.00091       2.61933
 
  77    C  5  s      Cor( 1s)     1.99952      -9.81322
  78    C  5  s      Val( 2s)     1.25995      -0.06072
  79    C  5  s      Ryd( 3s)     0.01137       0.74139
  80    C  5  s      Ryd( 4s)     0.00058       1.51526
  81    C  5  s      Ryd( 5s)     0.00002       4.29728
  82    C  5  px     Val( 2p)     1.23064       0.19051
  83    C  5  px     Ryd( 3p)     0.00254       0.59338
  84    C  5  px     Ryd( 4p)     0.00044       0.84430
  85    C  5  py     Val( 2p)     1.21343       0.19599
  86    C  5  py     Ryd( 3p)     0.00377       0.59630
  87    C  5  py     Ryd( 4p)     0.00036       0.82560
  88    C  5  pz     Val( 2p)     1.05963       0.16938
  89    C  5  pz     Ryd( 3p)     0.01576       0.60444
  90    C  5  pz     Ryd( 4p)     0.00081       0.83066
  91    C  5  dxy    Ryd( 3d)     0.00116       2.39232
  92    C  5  dxz    Ryd( 3d)     0.00062       2.30677
  93    C  5  dyz    Ryd( 3d)     0.00075       2.17426
  94    C  5  dx2y2  Ryd( 3d)     0.00108       2.34944
  95    C  5  dz2    Ryd( 3d)     0.00073       2.35341
 
  96    O  6  s      Cor( 1s)     1.99983     -18.54181
  97    O  6  s      Val( 2s)     1.73693      -0.54434
  98    O  6  s      Ryd( 3s)     0.00149       1.49749
  99    O  6  s      Ryd( 4s)     0.00017       2.22201
 100    O  6  s      Ryd( 5s)     0.00006       4.00345
 101    O  6  px     Val( 2p)     1.88926       0.09822
 102    O  6  px     Ryd( 3p)     0.00279       1.02494
 103    O  6  px     Ryd( 4p)     0.00015       1.41106
 104    O  6  py     Val( 2p)     1.51078       0.07506
 105    O  6  py     Ryd( 3p)     0.00053       1.20608
 106    O  6  py     Ryd( 4p)     0.00019       1.35977
 107    O  6  pz     Val( 2p)     1.56845       0.10010
 108    O  6  pz     Ryd( 3p)     0.00233       0.94829
 109    O  6  pz     Ryd( 4p)     0.00012       1.31024
 110    O  6  dxy    Ryd( 3d)     0.00204       2.55746
 111    O  6  dxz    Ryd( 3d)     0.00011       2.19907
 112    O  6  dyz    Ryd( 3d)     0.00218       2.39324
 113    O  6  dx2y2  Ryd( 3d)     0.00233       2.74173
 114    O  6  dz2    Ryd( 3d)     0.00077       2.41584
 
 115    C  7  s      Cor( 1s)     1.99897      -9.83109
 116    C  7  s      Val( 2s)     0.88317       0.11071
 117    C  7  s      Ryd( 3s)     0.00516       1.54091
 118    C  7  s      Ryd( 4s)     0.00147       1.89144
 119    C  7  s      Ryd( 5s)     0.00008       3.89311
 120    C  7  px     Val( 2p)     0.96432       0.24634
 121    C  7  px     Ryd( 4p)     0.01265       1.08283
 122    C  7  px     Ryd( 3p)     0.00224       0.71486
 123    C  7  py     Val( 2p)     0.94470       0.23338
 124    C  7  py     Ryd( 4p)     0.01112       1.22552
 125    C  7  py     Ryd( 3p)     0.00094       0.64631
 126    C  7  pz     Val( 2p)     0.83425       0.19703
 127    C  7  pz     Ryd( 4p)     0.00446       1.00114
 128    C  7  pz     Ryd( 3p)     0.00159       0.57471
 129    C  7  dxy    Ryd( 3d)     0.00148       2.77152
 130    C  7  dxz    Ryd( 3d)     0.00191       2.32214
 131    C  7  dyz    Ryd( 3d)     0.00088       2.29224
 132    C  7  dx2y2  Ryd( 3d)     0.00337       2.67365
 133    C  7  dz2    Ryd( 3d)     0.00116       2.55969
 
 134    O  8  s      Cor( 1s)     1.99982     -18.53325
 135    O  8  s      Val( 2s)     1.73134      -0.55500
 136    O  8  s      Ryd( 3s)     0.00079       1.54511
 137    O  8  s      Ryd( 4s)     0.00028       2.36424
 138    O  8  s      Ryd( 5s)     0.00005       3.64649
 139    O  8  px     Val( 2p)     1.68250       0.07324
 140    O  8  px     Ryd( 3p)     0.00239       0.92632
 141    O  8  px     Ryd( 4p)     0.00024       1.50062
 142    O  8  py     Val( 2p)     1.73476       0.07813
 143    O  8  py     Ryd( 3p)     0.00253       0.91272
 144    O  8  py     Ryd( 4p)     0.00028       1.44061
 145    O  8  pz     Val( 2p)     1.64726       0.08929
 146    O  8  pz     Ryd( 3p)     0.00272       0.82885
 147    O  8  pz     Ryd( 4p)     0.00027       1.39862
 148    O  8  dxy    Ryd( 3d)     0.00234       2.69850
 149    O  8  dxz    Ryd( 3d)     0.00119       2.32578
 150    O  8  dyz    Ryd( 3d)     0.00126       2.28953
 151    O  8  dx2y2  Ryd( 3d)     0.00209       2.49033
 152    O  8  dz2    Ryd( 3d)     0.00083       2.40887
 
 153    C  9  s      Cor( 1s)     1.99936      -9.80672
 154    C  9  s      Val( 2s)     1.14534      -0.02640
 155    C  9  s      Ryd( 3s)     0.00149       0.77601
 156    C  9  s      Ryd( 4s)     0.00064       1.50349
 157    C  9  s      Ryd( 5s)     0.00001       4.50473
 158    C  9  px     Val( 2p)     1.19987       0.16845
 159    C  9  px     Ryd( 4p)     0.00347       0.74473
 160    C  9  px     Ryd( 3p)     0.00038       0.65188
 161    C  9  py     Val( 2p)     1.13538       0.18266
 162    C  9  py     Ryd( 4p)     0.00196       0.63886
 163    C  9  py     Ryd( 3p)     0.00094       0.61158
 164    C  9  pz     Val( 2p)     1.21617       0.16579
 165    C  9  pz     Ryd( 4p)     0.00154       0.74030
 166    C  9  pz     Ryd( 3p)     0.00046       0.63729
 167    C  9  dxy    Ryd( 3d)     0.00129       2.41870
 168    C  9  dxz    Ryd( 3d)     0.00073       2.22400
 169    C  9  dyz    Ryd( 3d)     0.00033       2.14519
 170    C  9  dx2y2  Ryd( 3d)     0.00081       2.35852
 171    C  9  dz2    Ryd( 3d)     0.00147       2.39902
 
 172    H 10  s      Val( 1s)     0.79589       0.26144
 173    H 10  s      Ryd( 2s)     0.00214       1.05742
 
 174    H 11  s      Val( 1s)     0.75244       0.35695
 175    H 11  s      Ryd( 2s)     0.00197       1.05145
 
 176    H 12  s      Val( 1s)     0.77246       0.29661
 177    H 12  s      Ryd( 2s)     0.00111       1.04147
 
 178    H 13  s      Val( 1s)     0.77573       0.32049
 179    H 13  s      Ryd( 2s)     0.00207       1.07345
 
 180    H 14  s      Val( 1s)     0.75468       0.34620
 181    H 14  s      Ryd( 2s)     0.00202       1.08567
 
 182    H 15  s      Val( 1s)     0.79505       0.32591
 183    H 15  s      Ryd( 2s)     0.00173       1.07807
 
   1 low occupancy (<1.9990e) core orbital  found on  C  4
   1 low occupancy (<1.9990e) core orbital  found on  C  7
 
     Population inversion found on atom  C  1
     Population inversion found on atom  C  4
     Population inversion found on atom  C  7
     Population inversion found on atom  C  9


 Summary of Natural Population Analysis:

                                     Natural Population
             Natural    ---------------------------------------------
  Atom No    Charge        Core      Valence    Rydberg      Total
 --------------------------------------------------------------------
    C  1    0.70110      1.99936     3.23439    0.06515     5.29890
    O  2   -0.81047      1.99979     6.78948    0.02121     8.81047
    O  3   -0.79946      1.99982     6.78176    0.01788     8.79946
    C  4    0.28831      1.99866     3.66847    0.04456     5.71169
    C  5   -0.80316      1.99952     4.76365    0.03999     6.80316
    O  6   -0.72052      1.99983     6.70542    0.01528     8.72052
    C  7    0.32608      1.99897     3.62644    0.04851     5.67392
    O  8   -0.81294      1.99982     6.79586    0.01725     8.81294
    C  9   -0.71165      1.99936     4.69676    0.01553     6.71165
    H 10    0.20197      0.00000     0.79589    0.00214     0.79803
    H 11    0.24559      0.00000     0.75244    0.00197     0.75441
    H 12    0.22643      0.00000     0.77246    0.00111     0.77357
    H 13    0.22220      0.00000     0.77573    0.00207     0.77780
    H 14    0.24330      0.00000     0.75468    0.00202     0.75670
    H 15    0.20322      0.00000     0.79505    0.00173     0.79678
 ====================================================================
 * Total * -2.00000     17.99512    51.70848    0.29640    70.00000

                                 Natural Population      
 --------------------------------------------------------
   Core                      17.99512 ( 99.9729% of  18)
   Valence                   51.70848 ( 99.4394% of  52)
   Natural Minimal Basis     69.70360 ( 99.5766% of  70)
   Natural Rydberg Basis      0.29640 (  0.4234% of  70)
 --------------------------------------------------------

    Atom No         Natural Electron Configuration
 ----------------------------------------------------------------------------
      C  1      [core]2s( 0.80)2p( 2.44)3s( 0.01)3d( 0.01)4p( 0.03)
      O  2      [core]2s( 1.72)2p( 5.07)3p( 0.01)3d( 0.01)
      O  3      [core]2s( 1.74)2p( 5.04)3p( 0.01)3d( 0.01)
      C  4      [core]2s( 0.92)2p( 2.75)4s( 0.01)3d( 0.01)4p( 0.02)
      C  5      [core]2s( 1.26)2p( 3.50)3s( 0.01)3p( 0.02)
      O  6      [core]2s( 1.74)2p( 4.97)3p( 0.01)3d( 0.01)
      C  7      [core]2s( 0.88)2p( 2.74)3s( 0.01)3d( 0.01)4p( 0.03)
      O  8      [core]2s( 1.73)2p( 5.06)3p( 0.01)3d( 0.01)
      C  9      [core]2s( 1.15)2p( 3.55)4p( 0.01)
      H 10            1s( 0.80)
      H 11            1s( 0.75)
      H 12            1s( 0.77)
      H 13            1s( 0.78)
      H 14            1s( 0.75)
      H 15            1s( 0.80)


 NATURAL BOND ORBITAL ANALYSIS:

                       Occupancies       Lewis Structure    Low   High
           Occ.    -------------------  -----------------   occ   occ
  Cycle   Thresh.   Lewis   Non-Lewis     CR  BD  3C  LP    (L)   (NL)   Dev
 =============================================================================
   1(1)    1.90    68.01312   1.98688      9  16   0  10     3      4    0.46
   2(2)    1.90    67.74050   2.25950      9  17   0   9     4      4    0.46
   3(3)    1.90    67.76354   2.23646      9  17   0   9     4      5    0.42
   4(4)    1.90    67.76354   2.23646      9  17   0   9     4      5    0.42
   5(5)    1.90    66.94739   3.05261      9  18   0   8     3      5    1.46
   6(6)    1.90    67.76354   2.23646      9  17   0   9     4      5    0.42
   7(7)    1.90    67.76354   2.23646      9  17   0   9     4      5    0.42
   8(8)    1.90    66.94739   3.05261      9  18   0   8     3      5    1.46
   9(9)    1.90    67.76354   2.23646      9  17   0   9     4      5    0.42
  10(1)    1.80    68.02531   1.97469      9  16   0  10     2      4    0.46
  11(2)    1.80    68.01344   1.98656      9  16   0  10     2      4    0.46
  12(3)    1.80    68.02531   1.97469      9  16   0  10     2      4    0.46
  13(1)    1.70    68.02531   1.97469      9  16   0  10     2      4    0.46
  14(2)    1.70    68.01344   1.98656      9  16   0  10     2      4    0.46
  15(3)    1.70    68.02531   1.97469      9  16   0  10     2      4    0.46
  16(1)    1.60    68.21710   1.78290      9  16   0  10     0      4    0.46
  17(2)    1.60    68.21710   1.78290      9  16   0  10     0      4    0.46

    The hybrids on atom  5 are linearly dependent.  An eigenvalue (  0.000046)
    of the hybrid overlap matrix is too small (<0.00010).

    PRJTHR will be raised from  0.200 to 0.250 and the NBO search repeated.

  18(1)    1.50    67.31157   2.68843      9  14   0  12     0      4    0.49
  19(2)    1.50    67.31157   2.68843      9  14   0  12     0      4    0.49
  20(1)    1.60    68.21710   1.78290      9  16   0  10     0      4    0.46
 -----------------------------------------------------------------------------

 Strongly delocalized structure accepted

           1 low occupancy (<1.9990e) core orbital  found on  C 4
           1 low occupancy (<1.9990e) core orbital  found on  C 7

 --------------------------------------------------------
   Core                     17.99510 ( 99.973% of  18)
   Valence Lewis            50.22201 ( 96.581% of  52)
  ==================       ============================
   Total Lewis              68.21710 ( 97.453% of  70)
  -----------------------------------------------------
   Valence non-Lewis         1.57814 (  2.254% of  70)
   Rydberg non-Lewis         0.20475 (  0.293% of  70)
  ==================       ============================
   Total non-Lewis           1.78290 (  2.547% of  70)
 --------------------------------------------------------


     (Occupancy)   Bond orbital/ Coefficients/ Hybrids
 -------------------------------------------------------------------------------
   1. (1.99596) BD ( 1) C  1- O  2       
               ( 34.52%)   0.5875* C  1 s( 33.28%)p 2.00( 66.55%)d 0.01(  0.17%)
                                        -0.0002  0.5748 -0.0496  0.0014  0.0046
                                        -0.0205  0.0202 -0.0069  0.8066  0.0576
                                        -0.0024 -0.1032 -0.0042 -0.0007 -0.0056
                                         0.0004 -0.0079 -0.0376 -0.0137
               ( 65.48%)   0.8092* O  2 s( 39.18%)p 1.55( 60.55%)d 0.01(  0.27%)
                                         0.0000  0.6258 -0.0139 -0.0056  0.0042
                                         0.0115 -0.0068  0.0029 -0.7735  0.0205
                                         0.0007  0.0807 -0.0030  0.0002 -0.0017
                                        -0.0001 -0.0096 -0.0452 -0.0229
   2. (1.99493) BD ( 1) C  1- O  3       
               ( 35.22%)   0.5934* C  1 s( 32.55%)p 2.07( 67.29%)d 0.00(  0.16%)
                                         0.0000  0.5691 -0.0409 -0.0040  0.0045
                                         0.7184  0.0568 -0.0068 -0.3917 -0.0005
                                        -0.0030 -0.0063  0.0067 -0.0019 -0.0331
                                         0.0023  0.0001  0.0163 -0.0142
               ( 64.78%)   0.8049* O  3 s( 35.14%)p 1.84( 64.63%)d 0.01(  0.23%)
                                         0.0000  0.5926 -0.0150 -0.0040 -0.0043
                                        -0.6942  0.0156  0.0009  0.3707 -0.0169
                                        -0.0035 -0.1628  0.0030  0.0005 -0.0356
                                         0.0102 -0.0052  0.0214 -0.0199
   3. (1.98116) BD ( 2) C  1- O  3       
               ( 24.50%)   0.4950* C  1 s(  0.16%)p99.99( 99.55%)d 1.75(  0.29%)
                                         0.0000  0.0388 -0.0112 -0.0005 -0.0012
                                         0.0318  0.0053  0.0011  0.0995 -0.0078
                                         0.0036  0.9907 -0.0498  0.0223  0.0039
                                         0.0422 -0.0313  0.0039  0.0090
               ( 75.50%)   0.8689* O  3 s(  0.28%)p99.99( 99.55%)d 0.61(  0.17%)
                                         0.0000  0.0529 -0.0025  0.0001 -0.0002
                                        -0.0973  0.0011 -0.0003  0.1630 -0.0014
                                         0.0002  0.9795 -0.0029  0.0018 -0.0086
                                        -0.0345  0.0192  0.0005 -0.0090
   4. (1.98020) BD ( 1) C  1- C  4       
               ( 46.73%)   0.6836* C  1 s( 34.35%)p 1.91( 65.57%)d 0.00(  0.08%)
                                        -0.0002 -0.5831 -0.0587  0.0029  0.0045
                                         0.6888 -0.0106 -0.0181  0.4230  0.0044
                                        -0.0087 -0.0425 -0.0042 -0.0009 -0.0246
                                         0.0033 -0.0004 -0.0127  0.0063
               ( 53.27%)   0.7299* C  4 s( 32.93%)p 2.03( 67.00%)d 0.00(  0.07%)
                                         0.0003 -0.5734  0.0223  0.0025  0.0034
                                        -0.6728  0.0053  0.0006 -0.4604  0.0190
                                         0.0038  0.0707 -0.0056 -0.0008 -0.0228
                                         0.0050  0.0009 -0.0044  0.0110
   5. (1.98862) BD ( 1) C  4- O  6       
               ( 37.16%)   0.6096* C  4 s( 29.31%)p 2.41( 70.57%)d 0.00(  0.12%)
                                         0.0004 -0.5376 -0.0632  0.0042 -0.0056
                                        -0.1160 -0.0204 -0.0002  0.8148  0.0642
                                        -0.0003 -0.1537 -0.0164 -0.0014  0.0068
                                        -0.0014  0.0083  0.0287  0.0159
               ( 62.84%)   0.7927* O  6 s( 33.88%)p 1.95( 65.91%)d 0.01(  0.21%)
                                        -0.0001 -0.5817  0.0182 -0.0037  0.0012
                                         0.1296 -0.0022 -0.0003 -0.8006  0.0118
                                         0.0061  0.0352 -0.0006 -0.0009  0.0123
                                        -0.0018  0.0073  0.0386  0.0204
   6. (1.97454) BD ( 2) C  4- O  6       
               ( 25.80%)   0.5079* C  4 s(  1.06%)p93.19( 98.70%)d 0.23(  0.24%)
                                         0.0002 -0.1016  0.0129  0.0103  0.0009
                                         0.1006 -0.0069 -0.0021  0.1313  0.0041
                                         0.0005  0.9780 -0.0473  0.0302 -0.0029
                                         0.0068 -0.0461  0.0067  0.0127
               ( 74.20%)   0.8614* O  6 s(  0.02%)p99.99( 99.84%)d 8.64(  0.15%)
                                         0.0000 -0.0128  0.0006 -0.0023 -0.0001
                                         0.1082 -0.0031 -0.0006  0.0705  0.0021
                                         0.0004  0.9908 -0.0065  0.0028  0.0036
                                        -0.0060  0.0370 -0.0033 -0.0066
   7. (1.97678) BD ( 1) C  4- C  7       
               ( 49.19%)   0.7014* C  4 s( 36.75%)p 1.72( 63.16%)d 0.00(  0.08%)
                                        -0.0001  0.6061 -0.0097  0.0059 -0.0018
                                        -0.7228 -0.0061  0.0067  0.3153 -0.0121
                                        -0.0029  0.0961  0.0175  0.0020 -0.0195
                                        -0.0015  0.0061  0.0152 -0.0135
               ( 50.81%)   0.7128* C  7 s( 35.71%)p 1.80( 64.21%)d 0.00(  0.08%)
                                         0.0000  0.5973 -0.0158  0.0034 -0.0043
                                         0.7520 -0.0063 -0.0108 -0.2516  0.0021
                                         0.0052  0.1122  0.0192  0.0090 -0.0152
                                         0.0023  0.0013  0.0202 -0.0122
   8. (1.64349) BD ( 1) C  5- C  7       
               ( 61.55%)   0.7845* C  5 s( 20.40%)p 3.90( 79.58%)d 0.00(  0.02%)
                                         0.0014  0.4479 -0.0580  0.0025  0.0021
                                        -0.0962 -0.0202  0.0047  0.0879 -0.0151
                                        -0.0087  0.8792 -0.0713 -0.0077 -0.0007
                                         0.0003  0.0031  0.0010  0.0120
               ( 38.45%)   0.6201* C  7 s(  3.68%)p26.18( 96.21%)d 0.03(  0.12%)
                                         0.0001  0.1906  0.0019 -0.0205  0.0005
                                        -0.0167 -0.0193 -0.0095 -0.0330  0.0068
                                         0.0003 -0.9795  0.0144  0.0220 -0.0027
                                        -0.0258  0.0066 -0.0007  0.0214
   9. (1.98506) BD ( 1) C  5- H 13       
               ( 61.09%)   0.7816* C  5 s( 24.31%)p 3.11( 75.59%)d 0.00(  0.10%)
                                        -0.0001  0.4924  0.0248  0.0018 -0.0002
                                        -0.6644 -0.0145  0.0018 -0.4891 -0.0180
                                        -0.0020 -0.2731  0.0078 -0.0084  0.0226
                                         0.0125  0.0096  0.0069 -0.0121
               ( 38.91%)   0.6237* H 13 s(100.00%)
                                         1.0000  0.0045
  10. (1.98131) BD ( 1) C  5- H 14       
               ( 62.28%)   0.7892* C  5 s( 30.99%)p 2.22( 68.92%)d 0.00(  0.10%)
                                         0.0001  0.5565  0.0121 -0.0027 -0.0001
                                         0.7355  0.0232 -0.0049 -0.3452 -0.0143
                                        -0.0008 -0.1678 -0.0051 -0.0113 -0.0199
                                        -0.0129  0.0062  0.0162 -0.0110
               ( 37.72%)   0.6142* H 14 s(100.00%)
                                         1.0000  0.0038
  11. (1.98661) BD ( 1) C  5- H 15       
               ( 60.18%)   0.7757* C  5 s( 24.66%)p 3.05( 75.23%)d 0.00(  0.11%)
                                        -0.0001  0.4956  0.0305 -0.0018 -0.0011
                                        -0.0790  0.0076  0.0024  0.7941  0.0384
                                         0.0035 -0.3373  0.0034 -0.0118 -0.0044
                                         0.0012 -0.0191 -0.0237 -0.0109
               ( 39.82%)   0.6311* H 15 s(100.00%)
                                         1.0000  0.0040
  12. (1.99189) BD ( 1) C  7- O  8       
               ( 36.93%)   0.6077* C  7 s( 27.79%)p 2.59( 72.08%)d 0.00(  0.13%)
                                        -0.0001  0.5256  0.0405  0.0036  0.0024
                                        -0.6235 -0.0415 -0.0101 -0.5577 -0.0362
                                        -0.0095  0.1323  0.0145  0.0047  0.0303
                                        -0.0073 -0.0058  0.0033 -0.0172
               ( 63.07%)   0.7942* O  8 s( 34.61%)p 1.88( 65.17%)d 0.01(  0.22%)
                                         0.0000  0.5881 -0.0119  0.0078 -0.0025
                                         0.5965 -0.0182 -0.0072  0.5233 -0.0217
                                        -0.0076 -0.1453  0.0040  0.0013  0.0397
                                        -0.0109 -0.0092  0.0044 -0.0200
  13. (1.98890) BD ( 1) C  7- C  9       
               ( 49.65%)   0.7046* C  7 s( 32.78%)p 2.05( 67.15%)d 0.00(  0.06%)
                                        -0.0003  0.5725 -0.0078 -0.0027  0.0025
                                        -0.2042 -0.0061  0.0040  0.7886 -0.0056
                                        -0.0042  0.0882  0.0068 -0.0028 -0.0115
                                         0.0015  0.0037 -0.0185 -0.0123
               ( 50.35%)   0.7096* C  9 s( 28.21%)p 2.54( 71.72%)d 0.00(  0.07%)
                                         0.0002  0.5310 -0.0096 -0.0023 -0.0016
                                         0.3320 -0.0041  0.0000 -0.7600 -0.0102
                                         0.0059 -0.1712  0.0019 -0.0004 -0.0168
                                        -0.0009  0.0052 -0.0172 -0.0100
  14. (1.98893) BD ( 1) C  9- H 10       
               ( 60.37%)   0.7770* C  9 s( 22.93%)p 3.36( 76.99%)d 0.00(  0.08%)
                                         0.0001 -0.4788 -0.0093  0.0024 -0.0006
                                         0.7619 -0.0053  0.0008 -0.0968 -0.0044
                                        -0.0059  0.4242 -0.0048 -0.0023  0.0049
                                        -0.0221  0.0024 -0.0168  0.0036
               ( 39.63%)   0.6295* H 10 s(100.00%)
                                        -1.0000 -0.0042
  15. (1.99095) BD ( 1) C  9- H 11       
               ( 62.81%)   0.7926* C  9 s( 26.19%)p 2.81( 73.72%)d 0.00(  0.09%)
                                        -0.0001  0.5117  0.0015  0.0057  0.0002
                                         0.5279  0.0030  0.0015  0.6386  0.0020
                                         0.0006 -0.2253  0.0022 -0.0003  0.0239
                                        -0.0065 -0.0091 -0.0062 -0.0120
               ( 37.19%)   0.6098* H 11 s(100.00%)
                                         1.0000  0.0057
  16. (1.97685) BD ( 1) C  9- H 12       
               ( 61.12%)   0.7818* C  9 s( 22.68%)p 3.41( 77.23%)d 0.00(  0.10%)
                                        -0.0001  0.4762  0.0037  0.0010  0.0006
                                        -0.1714 -0.0003 -0.0039  0.0638  0.0048
                                         0.0075  0.8595  0.0008  0.0015 -0.0006
                                        -0.0063  0.0005 -0.0013  0.0303
               ( 38.88%)   0.6235* H 12 s(100.00%)
                                         1.0000  0.0014
  17. (1.99936) CR ( 1) C  1             s(100.00%)p 0.00(  0.00%)
                                         1.0000  0.0000  0.0000  0.0000  0.0000
                                         0.0001  0.0000  0.0000  0.0002  0.0000
                                         0.0000  0.0000  0.0000  0.0000  0.0000
                                         0.0000  0.0000  0.0000  0.0000
  18. (1.99979) CR ( 1) O  2             s(100.00%)p 0.00(  0.00%)
                                         1.0000  0.0003  0.0000  0.0000  0.0000
                                         0.0000  0.0000  0.0000  0.0003  0.0000
                                         0.0000  0.0000  0.0000  0.0000  0.0000
                                         0.0000  0.0000  0.0000  0.0000
  19. (1.99982) CR ( 1) O  3             s(100.00%)p 0.00(  0.00%)
                                         1.0000  0.0003  0.0000  0.0000  0.0000
                                         0.0002  0.0000  0.0000 -0.0002  0.0000
                                         0.0000  0.0000  0.0000  0.0000  0.0000
                                         0.0000  0.0000  0.0000  0.0000
  20. (1.99866) CR ( 1) C  4             s(100.00%)p 0.00(  0.00%)
                                         1.0000  0.0004  0.0000  0.0000  0.0000
                                         0.0002  0.0000  0.0000 -0.0002  0.0000
                                         0.0000 -0.0001  0.0000  0.0000  0.0000
                                         0.0000  0.0000  0.0000  0.0000
  21. (1.99949) CR ( 1) C  5             s(100.00%)p 0.00(  0.00%)
                                         1.0000 -0.0006  0.0001  0.0000  0.0000
                                         0.0000  0.0000  0.0000  0.0000  0.0000
                                         0.0000 -0.0013  0.0001  0.0000  0.0000
                                         0.0000  0.0000  0.0000  0.0000
  22. (1.99982) CR ( 1) O  6             s(100.00%)p 0.00(  0.00%)
                                         1.0000  0.0003  0.0000  0.0000  0.0000
                                         0.0000  0.0000  0.0000 -0.0003  0.0000
                                         0.0000  0.0000  0.0000  0.0000  0.0000
                                         0.0000  0.0000  0.0000  0.0000
  23. (1.99897) CR ( 1) C  7             s(100.00%)p 0.00(  0.00%)
                                         1.0000  0.0002  0.0000  0.0000  0.0000
                                        -0.0001  0.0000  0.0000  0.0002  0.0000
                                         0.0000  0.0002  0.0000  0.0000  0.0000
                                         0.0000  0.0000  0.0000  0.0000
  24. (1.99982) CR ( 1) O  8             s(100.00%)p 0.00(  0.00%)
                                         1.0000  0.0003  0.0000  0.0000  0.0000
                                        -0.0002  0.0000  0.0000 -0.0001  0.0000
                                         0.0000  0.0000  0.0000  0.0000  0.0000
                                         0.0000  0.0000  0.0000  0.0000
  25. (1.99936) CR ( 1) C  9             s(100.00%)p 0.00(  0.00%)
                                         1.0000  0.0001  0.0000  0.0000  0.0000
                                        -0.0001  0.0000  0.0000  0.0002  0.0000
                                         0.0000  0.0001  0.0000  0.0000  0.0000
                                         0.0000  0.0000  0.0000  0.0000
  26. (1.97721) LP ( 1) O  2             s( 60.74%)p 0.65( 39.22%)d 0.00(  0.03%)
                                        -0.0004  0.7793  0.0087  0.0023 -0.0023
                                         0.0204  0.0047 -0.0035  0.6210 -0.0047
                                        -0.0043 -0.0780  0.0012  0.0003 -0.0012
                                         0.0001  0.0041  0.0152  0.0096
  27. (1.89085) LP ( 2) O  2             s(  0.06%)p99.99( 99.80%)d 2.69(  0.15%)
                                         0.0000  0.0228 -0.0051  0.0015  0.0013
                                        -0.9984 -0.0115 -0.0039  0.0002 -0.0020
                                         0.0017 -0.0321 -0.0012  0.0003  0.0382
                                        -0.0044  0.0012  0.0007 -0.0008
  28. (1.60863) LP ( 3) O  2             s(  0.01%)p99.99( 99.80%)d15.44(  0.19%)
                                         0.0000  0.0110  0.0011 -0.0001 -0.0005
                                        -0.0317 -0.0011  0.0012  0.1119 -0.0014
                                         0.0012  0.9922  0.0028 -0.0006  0.0011
                                        -0.0021 -0.0422  0.0044  0.0085
  29. (1.98151) LP ( 1) O  3             s( 64.55%)p 0.55( 35.43%)d 0.00(  0.02%)
                                        -0.0004  0.8034  0.0074  0.0012  0.0021
                                         0.5106 -0.0019  0.0032 -0.3003  0.0083
                                         0.0004  0.0574 -0.0010 -0.0001  0.0105
                                        -0.0021  0.0018 -0.0047  0.0085
  30. (1.90375) LP ( 2) O  3             s(  0.04%)p99.99( 99.83%)d 3.59(  0.13%)
                                         0.0000  0.0145  0.0124 -0.0003 -0.0005
                                         0.4950  0.0053 -0.0009  0.8627  0.0089
                                        -0.0014 -0.0952 -0.0001  0.0002 -0.0172
                                         0.0009 -0.0052 -0.0313 -0.0006
  31. (1.98307) LP ( 1) O  6             s( 65.90%)p 0.52( 34.08%)d 0.00(  0.02%)
                                        -0.0004  0.8118  0.0078 -0.0015  0.0005
                                         0.0389 -0.0014  0.0003 -0.5805  0.0032
                                        -0.0013  0.0476 -0.0008  0.0006  0.0016
                                         0.0003  0.0024  0.0096  0.0087
  32. (1.90716) LP ( 2) O  6             s(  0.21%)p99.99( 99.68%)d 0.51(  0.11%)
                                         0.0000  0.0461 -0.0002  0.0000  0.0006
                                         0.9843  0.0055  0.0000  0.1208  0.0011
                                         0.0005 -0.1155 -0.0026 -0.0009  0.0306
                                        -0.0041 -0.0042 -0.0100  0.0011
  33. (1.97985) LP ( 1) O  8             s( 65.25%)p 0.53( 34.73%)d 0.00(  0.02%)
                                        -0.0004  0.8077  0.0053 -0.0035  0.0012
                                        -0.4507  0.0035 -0.0003 -0.3738  0.0114
                                         0.0001  0.0660 -0.0020  0.0001 -0.0108
                                         0.0025  0.0022 -0.0009  0.0080
  34. (1.90716) LP ( 2) O  8             s(  0.02%)p99.99( 99.87%)d 4.67(  0.11%)
                                         0.0000  0.0122 -0.0082 -0.0043  0.0008
                                         0.6482  0.0102  0.0020 -0.7600 -0.0083
                                         0.0005 -0.0260 -0.0011  0.0006 -0.0018
                                        -0.0050  0.0040  0.0323  0.0026
  35. (1.65663) LP ( 3) O  8             s(  0.11%)p99.99( 99.75%)d 1.24(  0.14%)
                                         0.0000  0.0332  0.0007 -0.0029  0.0002
                                         0.1354  0.0049  0.0016  0.0824  0.0014
                                         0.0000  0.9860  0.0088  0.0051  0.0063
                                         0.0240  0.0257  0.0012 -0.0097
  36. (0.02176) RY*( 1) C  1             s( 13.92%)p 5.80( 80.73%)d 0.38(  5.35%)
                                         0.0000  0.0308  0.3706  0.0075  0.0283
                                         0.0310  0.0788  0.1349  0.0732 -0.8723
                                         0.0035 -0.0063  0.1246  0.0077  0.1196
                                        -0.0142  0.0344  0.1943  0.0079
  37. (0.01734) RY*( 2) C  1             s( 28.58%)p 2.10( 59.92%)d 0.40( 11.50%)
                                         0.0000  0.0413  0.5063  0.1578  0.0531
                                         0.0745 -0.7087  0.1123  0.0133  0.2401
                                         0.1341  0.0058 -0.0494 -0.0212  0.3118
                                        -0.0590  0.0460  0.1099  0.0107
  38. (0.00592) RY*( 3) C  1             s(  1.95%)p 5.10(  9.93%)d45.28( 88.13%)
                                         0.0000 -0.0068  0.1165  0.0722  0.0250
                                        -0.0003  0.1279 -0.0757  0.0110  0.0771
                                        -0.0303  0.0618  0.1744 -0.1896 -0.1190
                                        -0.5159  0.7472 -0.0754 -0.1921
  39. (0.00574) RY*( 4) C  1             s( 34.83%)p 1.00( 34.81%)d 0.87( 30.36%)
                                         0.0000 -0.0209 -0.1442  0.5681 -0.0655
                                         0.0031  0.4180  0.3210  0.0037  0.1526
                                         0.2164 -0.0053 -0.0129 -0.0008  0.4778
                                        -0.0316  0.0301  0.2555  0.0905
  40. (0.00288) RY*( 5) C  1             s(  7.75%)p 1.20(  9.31%)d10.71( 82.95%)
                                         0.0000 -0.0099  0.2764 -0.0132 -0.0282
                                        -0.0107  0.1584 -0.0776  0.0347  0.2137
                                         0.1213 -0.0059 -0.0162 -0.0019 -0.5080
                                         0.0970 -0.0279  0.7491  0.0010
  41. (0.00192) RY*( 6) C  1             s( 36.69%)p 1.00( 36.67%)d 0.73( 26.64%)
                                         0.0000 -0.0172  0.5939  0.0223 -0.1155
                                         0.0288  0.3994 -0.2094  0.0086  0.2210
                                        -0.0504  0.0162  0.3187 -0.0965  0.0700
                                        -0.0890 -0.3716 -0.3325  0.0704
  42. (0.00078) RY*( 7) C  1             s(  8.38%)p 9.37( 78.54%)d 1.56( 13.09%)
                                         0.0000  0.0002  0.2670  0.1058 -0.0358
                                         0.0094  0.2005 -0.3278 -0.0013 -0.0553
                                         0.0414 -0.0405 -0.7944  0.0123  0.0560
                                         0.2187  0.2292 -0.1643  0.0185
  43. (0.00041) RY*( 8) C  1             s( 13.56%)p 4.18( 56.66%)d 2.20( 29.78%)
                                         0.0000  0.0094 -0.1855  0.2999  0.1058
                                        -0.0161 -0.1415 -0.3288 -0.0062 -0.1568
                                        -0.0441  0.0085 -0.1674 -0.6193 -0.0572
                                        -0.3791 -0.3695  0.1170  0.0247
  44. (0.00026) RY*( 9) C  1             s( 47.62%)p 0.92( 43.88%)d 0.18(  8.50%)
                                         0.0000  0.0166 -0.0342  0.5982 -0.3419
                                        -0.0090 -0.1897 -0.2444 -0.0046 -0.0805
                                        -0.4613  0.0006  0.1797  0.3024 -0.2038
                                         0.1399  0.0852 -0.0257  0.1263
  45. (0.00013) RY*(10) C  1             s(  3.32%)p28.06( 93.16%)d 1.06(  3.52%)
                                         0.0000 -0.0045  0.1434 -0.0419 -0.1042
                                         0.0088  0.0606  0.6422  0.0034  0.0872
                                        -0.6059 -0.0043 -0.2894 -0.2387 -0.1513
                                        -0.0803 -0.0691 -0.0324  0.0005
  46. (0.00006) RY*(11) C  1             s( 27.06%)p 0.66( 17.74%)d 2.04( 55.20%)
  47. (0.00003) RY*(12) C  1             s( 36.75%)p 1.01( 37.08%)d 0.71( 26.17%)
  48. (0.00002) RY*(13) C  1             s( 12.74%)p 2.97( 37.77%)d 3.89( 49.49%)
  49. (0.00001) RY*(14) C  1             s( 26.52%)p 0.18(  4.85%)d 2.59( 68.63%)
  50. (0.00507) RY*( 1) O  2             s( 21.68%)p 3.59( 77.75%)d 0.03(  0.57%)
                                         0.0000  0.0021  0.4633 -0.0375  0.0257
                                        -0.0111  0.8749 -0.0043 -0.0163  0.0580
                                        -0.0557  0.0019  0.0724 -0.0019  0.0429
                                        -0.0095  0.0077  0.0610 -0.0044
  51. (0.00227) RY*( 2) O  2             s(  0.06%)p99.99( 98.11%)d32.84(  1.84%)
                                         0.0000  0.0002  0.0221 -0.0084  0.0005
                                         0.0002  0.0758  0.0157 -0.0002 -0.1129
                                        -0.0183 -0.0018 -0.9773 -0.0830  0.0085
                                         0.0840 -0.1028  0.0107  0.0235
  52. (0.00112) RY*( 3) O  2             s( 65.97%)p 0.50( 32.99%)d 0.02(  1.04%)
                                         0.0000 -0.0011  0.8028 -0.1015  0.0694
                                        -0.0031 -0.4528  0.1199 -0.0049  0.3152
                                        -0.0764 -0.0009 -0.0534  0.0497 -0.0800
                                        -0.0095 -0.0063  0.0623  0.0035
  53. (0.00052) RY*( 4) O  2             s( 31.11%)p 1.86( 58.00%)d 0.35( 10.90%)
                                         0.0000  0.0053  0.3032  0.4477  0.1368
                                         0.0126 -0.0830  0.0815 -0.0077 -0.5851
                                         0.4704 -0.0007  0.0515 -0.0009  0.2729
                                        -0.0738 -0.0088 -0.1690 -0.0197
  54. (0.00017) RY*( 5) O  2             s( 40.08%)p 1.18( 47.15%)d 0.32( 12.77%)
                                         0.0000 -0.0024 -0.1113  0.6218  0.0421
                                         0.0051  0.0450  0.4947  0.0036  0.3357
                                        -0.3335  0.0006 -0.0286 -0.0093  0.1933
                                        -0.0209  0.0535 -0.1137  0.2722
  55. (0.00009) RY*( 6) O  2             s(  8.27%)p 9.93( 82.13%)d 1.16(  9.60%)
  56. (0.00006) RY*( 7) O  2             s( 17.50%)p 2.48( 43.42%)d 2.23( 39.08%)
  57. (0.00007) RY*( 8) O  2             s(  5.66%)p14.52( 82.24%)d 2.14( 12.10%)
  58. (0.00004) RY*( 9) O  2             s( 19.31%)p 0.26(  4.94%)d 3.92( 75.75%)
  59. (0.00001) RY*(10) O  2             s( 79.55%)p 0.15( 12.06%)d 0.11(  8.39%)
  60. (0.00001) RY*(11) O  2             s(  3.25%)p 3.12( 10.13%)d26.67( 86.62%)
  61. (0.00001) RY*(12) O  2             s(  5.51%)p 1.09(  5.99%)d16.06( 88.50%)
  62. (0.00001) RY*(13) O  2             s(  1.94%)p20.44( 39.67%)d30.08( 58.39%)
  63. (0.00000) RY*(14) O  2             s(  0.12%)p49.48(  6.06%)d99.99( 93.81%)
  64. (0.00382) RY*( 1) O  3             s( 16.11%)p 5.17( 83.36%)d 0.03(  0.53%)
                                         0.0000  0.0004  0.3902 -0.0874 -0.0354
                                        -0.0197  0.4960 -0.0118 -0.0030  0.7649
                                        -0.0356  0.0005  0.0244 -0.0041  0.0625
                                        -0.0101  0.0041  0.0258  0.0249
  65. (0.00208) RY*( 2) O  3             s(  0.08%)p99.99( 98.62%)d15.82(  1.30%)
                                         0.0000  0.0001  0.0242 -0.0132 -0.0077
                                        -0.0010  0.0933 -0.0040 -0.0007 -0.0441
                                        -0.0301 -0.0068 -0.9857  0.0549 -0.0001
                                        -0.0399  0.1017 -0.0148 -0.0288
  66. (0.00086) RY*( 3) O  3             s( 71.13%)p 0.38( 27.38%)d 0.02(  1.49%)
                                         0.0000  0.0059  0.7921  0.2741 -0.0929
                                        -0.0189 -0.4718 -0.2021  0.0013 -0.0655
                                         0.0649  0.0003 -0.0306 -0.0244 -0.0957
                                         0.0156  0.0006  0.0077  0.0740
  67. (0.00058) RY*( 4) O  3             s( 41.53%)p 1.16( 48.27%)d 0.25( 10.21%)
                                         0.0000  0.0029 -0.4013  0.5027 -0.0381
                                         0.0022 -0.3577 -0.1224  0.0143  0.4927
                                         0.2992 -0.0031 -0.0820 -0.0218  0.0637
                                         0.0044  0.0345  0.3076 -0.0468
  68. (0.00013) RY*( 5) O  3             s( 15.30%)p 5.05( 77.25%)d 0.49(  7.45%)
                                         0.0000  0.0033  0.0369  0.3876  0.0372
                                        -0.0131 -0.1314  0.6297  0.0092  0.0753
                                        -0.5852  0.0005 -0.0040  0.1015  0.2552
                                        -0.0164 -0.0469 -0.0688  0.0468
  69. (0.00007) RY*( 6) O  3             s( 15.87%)p 2.33( 37.00%)d 2.97( 47.14%)
  70. (0.00002) RY*( 7) O  3             s(  2.14%)p37.19( 79.42%)d 8.64( 18.45%)
  71. (0.00001) RY*( 8) O  3             s( 97.91%)p 0.02(  1.80%)d 0.00(  0.29%)
  72. (0.00002) RY*( 9) O  3             s(  0.57%)p99.99( 99.02%)d 0.70(  0.41%)
  73. (0.00001) RY*(10) O  3             s( 10.38%)p 3.18( 33.00%)d 5.46( 56.62%)
  74. (0.00001) RY*(11) O  3             s(  0.26%)p 2.53(  0.65%)d99.99( 99.09%)
  75. (0.00001) RY*(12) O  3             s(  0.38%)p 4.83(  1.82%)d99.99( 97.80%)
  76. (0.00001) RY*(13) O  3             s( 26.94%)p 0.43( 11.61%)d 2.28( 61.45%)
  77. (0.00001) RY*(14) O  3             s(  1.40%)p 0.97(  1.37%)d69.25( 97.23%)
  78. (0.01535) RY*( 1) C  4             s( 15.14%)p 5.54( 83.82%)d 0.07(  1.04%)
                                         0.0000 -0.0538  0.3834  0.0382  0.0044
                                        -0.0110  0.2566 -0.0322  0.0649 -0.8650
                                        -0.0689 -0.0161  0.0854  0.0809  0.0228
                                         0.0403 -0.0746  0.0203  0.0475
  79. (0.00697) RY*( 2) C  4             s(  8.16%)p 5.56( 45.36%)d 5.69( 46.47%)
                                         0.0000  0.0285  0.2461 -0.1337 -0.0492
                                        -0.0109  0.2407 -0.0490  0.0033  0.2722
                                        -0.0972 -0.0591 -0.3215  0.4502  0.0625
                                         0.2669 -0.5645  0.0452  0.2624
  80. (0.00518) RY*( 3) C  4             s(  4.27%)p15.48( 66.09%)d 6.94( 29.64%)
                                         0.0000 -0.0018  0.1906  0.0790 -0.0117
                                         0.0152 -0.7704  0.1173 -0.0052 -0.1091
                                        -0.1510 -0.0243 -0.0234  0.1326 -0.4519
                                         0.1314 -0.1070  0.2364  0.0874
  81. (0.00314) RY*( 4) C  4             s( 20.52%)p 1.64( 33.68%)d 2.23( 45.80%)
                                         0.0000 -0.0032  0.4401 -0.0367 -0.1005
                                         0.0263  0.4189  0.1450  0.0316  0.2856
                                         0.0287  0.0111  0.2091 -0.1110 -0.6350
                                         0.0142  0.2020  0.0805 -0.0857
  82. (0.00222) RY*( 5) C  4             s( 38.71%)p 0.69( 26.71%)d 0.89( 34.58%)
                                         0.0000 -0.0040  0.6032  0.0748 -0.1327
                                        -0.0071 -0.2022 -0.1086  0.0177  0.2557
                                        -0.2671  0.0099  0.2754  0.0370  0.5270
                                        -0.1862  0.1553  0.0452 -0.0850
  83. (0.00093) RY*( 6) C  4             s( 18.90%)p 2.92( 55.26%)d 1.37( 25.84%)
                                         0.0000  0.0042  0.3631 -0.2178  0.0985
                                        -0.0087 -0.2168 -0.3759  0.0350 -0.0031
                                         0.4775 -0.0150 -0.3352 -0.1496 -0.0959
                                        -0.0950  0.0171 -0.4880 -0.0426
  84. (0.00075) RY*( 7) C  4             s( 15.33%)p 4.00( 61.34%)d 1.52( 23.33%)
                                         0.0000  0.0171  0.1790  0.3372 -0.0851
                                        -0.0025  0.0620  0.2816 -0.0106 -0.0057
                                         0.1705 -0.0177 -0.6624 -0.2490  0.1696
                                         0.0080  0.2276  0.3890  0.0366
  85. (0.00042) RY*( 8) C  4             s(  3.38%)p 6.56( 22.15%)d22.06( 74.48%)
                                         0.0000  0.0086 -0.0787  0.1565  0.0550
                                         0.0041  0.0806 -0.4044 -0.0163  0.0054
                                         0.0130 -0.0107 -0.0669  0.2153 -0.1895
                                        -0.7494 -0.0440  0.3128  0.2181
  86. (0.00037) RY*( 9) C  4             s( 47.26%)p 0.86( 40.50%)d 0.26( 12.24%)
                                         0.0000  0.0022  0.0119  0.6865 -0.0341
                                         0.0043 -0.0095  0.0931  0.0041  0.0587
                                         0.4500 -0.0061  0.2596  0.3505  0.0175
                                         0.1166  0.0451 -0.2592  0.1983
  87. (0.00033) RY*(10) C  4             s( 12.13%)p 2.46( 29.80%)d 4.79( 58.06%)
                                         0.0000 -0.0043  0.0444  0.3368 -0.0766
                                        -0.0039  0.0044  0.2255  0.0113  0.0252
                                        -0.1870 -0.0147  0.0027 -0.4596 -0.0633
                                        -0.3007 -0.6219 -0.2916 -0.1200
  88. (0.00018) RY*(11) C  4             s( 14.75%)p 4.14( 61.10%)d 1.64( 24.15%)
                                         0.0000  0.0042 -0.0540  0.3783 -0.0378
                                         0.0035  0.0608 -0.7067 -0.0065  0.0423
                                        -0.1789  0.0003 -0.0038 -0.2720 -0.0828
                                         0.4362 -0.0412  0.1530 -0.1389
  89. (0.00010) RY*(12) C  4             s( 37.12%)p 1.00( 36.97%)d 0.70( 25.91%)
  90. (0.00006) RY*(13) C  4             s( 50.39%)p 0.49( 24.85%)d 0.49( 24.77%)
  91. (0.00003) RY*(14) C  4             s( 13.91%)p 0.93( 12.93%)d 5.26( 73.16%)
  92. (0.01171) RY*( 1) C  5             s( 34.62%)p 1.85( 64.06%)d 0.04(  1.33%)
                                         0.0000  0.0163  0.5871 -0.0245  0.0242
                                        -0.0013  0.1632 -0.0483 -0.0042  0.1033
                                         0.0460  0.0955  0.7538 -0.1462 -0.0124
                                        -0.0106 -0.0482 -0.0010  0.1033
  93. (0.00144) RY*( 2) C  5             s( 61.03%)p 0.61( 37.14%)d 0.03(  1.82%)
                                         0.0000 -0.0181  0.5646  0.5397  0.0002
                                         0.0140 -0.3291 -0.2021 -0.0013  0.0509
                                         0.1792  0.0087 -0.4025 -0.1592  0.0634
                                         0.0655  0.0948  0.0227 -0.0207
  94. (0.00116) RY*( 3) C  5             s(  0.13%)p99.99( 97.49%)d18.16(  2.38%)
                                         0.0000 -0.0049 -0.0007  0.0050  0.0355
                                        -0.0099  0.4326  0.2358 -0.0397  0.7970
                                         0.1959  0.0114 -0.2140 -0.1047 -0.0362
                                         0.1126  0.0557 -0.0777 -0.0264
  95. (0.00080) RY*( 4) C  5             s(  6.68%)p11.40( 76.17%)d 2.57( 17.15%)
                                         0.0000 -0.0094  0.0777  0.2463  0.0048
                                        -0.0116  0.7093 -0.0435  0.0122 -0.4481
                                        -0.1344 -0.0006 -0.1675 -0.0974  0.0093
                                         0.3869 -0.1223 -0.0624  0.0531
  96. (0.00038) RY*( 5) C  5             s(  6.96%)p10.53( 73.25%)d 2.85( 19.79%)
                                         0.0000 -0.0064  0.2174  0.1483  0.0166
                                        -0.0027  0.0226  0.7000  0.0073 -0.0799
                                        -0.4732 -0.0047 -0.1060 -0.0182 -0.0126
                                        -0.3645  0.1613  0.1011  0.1694
  97. (0.00015) RY*( 6) C  5             s( 42.56%)p 0.51( 21.81%)d 0.84( 35.63%)
                                         0.0000 -0.0001 -0.3505  0.5501 -0.0083
                                        -0.0158  0.0827  0.0759 -0.0020 -0.0463
                                         0.2398 -0.0032  0.2224 -0.3102 -0.1989
                                        -0.4039 -0.2650  0.0751 -0.2787
  98. (0.00012) RY*( 7) C  5             s( 10.58%)p 5.92( 62.59%)d 2.54( 26.83%)
                                         0.0000  0.0164 -0.0555  0.3196 -0.0176
                                        -0.0166  0.2653 -0.3974  0.0067  0.1309
                                        -0.1246  0.0021  0.0759  0.5990 -0.0848
                                        -0.3172  0.3666  0.0911  0.1335
  99. (0.00009) RY*( 8) C  5             s(  2.89%)p 9.16( 26.50%)d24.41( 70.61%)
 100. (0.00007) RY*( 9) C  5             s(  8.53%)p 5.63( 48.05%)d 5.09( 43.42%)
 101. (0.00002) RY*(10) C  5             s(  5.55%)p12.80( 71.09%)d 4.21( 23.36%)
 102. (0.00002) RY*(11) C  5             s(  4.18%)p 0.61(  2.56%)d22.30( 93.26%)
 103. (0.00001) RY*(12) C  5             s( 15.01%)p 0.17(  2.54%)d 5.49( 82.45%)
 104. (0.00002) RY*(13) C  5             s( 18.78%)p 0.86( 16.24%)d 3.46( 64.98%)
 105. (0.00000) RY*(14) C  5             s( 82.14%)p 0.01(  1.20%)d 0.20( 16.66%)
 106. (0.00303) RY*( 1) O  6             s(  2.36%)p41.11( 97.07%)d 0.24(  0.57%)
                                         0.0000 -0.0004  0.1530  0.0119 -0.0071
                                        -0.0044  0.7656 -0.0706 -0.0006 -0.0106
                                        -0.0231 -0.0031 -0.6155  0.0056 -0.0532
                                        -0.0099  0.0471 -0.0116 -0.0206
 107. (0.00238) RY*( 2) O  6             s(  5.23%)p18.02( 94.33%)d 0.08(  0.43%)
                                         0.0000  0.0003  0.2265  0.0213 -0.0245
                                        -0.0008 -0.6217  0.0499  0.0039 -0.1958
                                         0.0076 -0.0086 -0.7175 -0.0311  0.0346
                                        -0.0219  0.0484 -0.0127 -0.0124
 108. (0.00096) RY*( 3) O  6             s( 83.39%)p 0.17( 13.85%)d 0.03(  2.76%)
                                         0.0000  0.0044  0.9075  0.1012  0.0006
                                        -0.0027  0.0119 -0.1292  0.0179  0.1032
                                         0.2176  0.0002  0.2466 -0.0500 -0.0106
                                         0.0023  0.0162 -0.1028  0.1291
 109. (0.00035) RY*( 4) O  6             s( 17.42%)p 4.50( 78.37%)d 0.24(  4.21%)
                                         0.0000 -0.0015  0.0990  0.3731 -0.1587
                                         0.0023  0.0969  0.0123 -0.0016 -0.7920
                                        -0.3272  0.0017  0.1766  0.0927  0.0444
                                        -0.0152  0.0702  0.1826  0.0401
 110. (0.00022) RY*( 5) O  6             s( 45.53%)p 1.05( 47.62%)d 0.15(  6.85%)
                                         0.0000 -0.0037 -0.2382  0.5622  0.2872
                                        -0.0017 -0.0268 -0.5223 -0.0158 -0.0866
                                         0.3671  0.0045 -0.0423 -0.2416  0.0313
                                        -0.0024 -0.0765 -0.2464 -0.0314
 111. (0.00009) RY*( 6) O  6             s(  4.44%)p18.43( 81.84%)d 3.09( 13.72%)
 112. (0.00010) RY*( 7) O  6             s( 12.07%)p 7.11( 85.75%)d 0.18(  2.18%)
                                         0.0000 -0.0017 -0.0082 -0.0610  0.3419
                                         0.0009 -0.0212 -0.1020 -0.0028 -0.0978
                                         0.1806 -0.0027 -0.0165  0.8968 -0.0261
                                         0.0717  0.0196 -0.1055  0.0670
 113. (0.00004) RY*( 8) O  6             s( 43.37%)p 0.77( 33.40%)d 0.54( 23.23%)
 114. (0.00001) RY*( 9) O  6             s( 71.71%)p 0.25( 17.85%)d 0.15( 10.44%)
 115. (0.00001) RY*(10) O  6             s( 10.03%)p 1.88( 18.81%)d 7.09( 71.16%)
 116. (0.00002) RY*(11) O  6             s(  0.51%)p 0.84(  0.43%)d99.99( 99.05%)
 117. (0.00000) RY*(12) O  6             s(  0.93%)p 2.17(  2.02%)d99.99( 97.05%)
 118. (0.00001) RY*(13) O  6             s(  1.51%)p18.40( 27.71%)d46.98( 70.78%)
 119. (0.00001) RY*(14) O  6             s(  1.50%)p 0.96(  1.43%)d64.93( 97.07%)
 120. (0.01576) RY*( 1) C  7             s( 13.16%)p 6.49( 85.43%)d 0.11(  1.41%)
                                         0.0000 -0.0408  0.3600  0.0042 -0.0174
                                         0.0431 -0.6962 -0.0785  0.0318 -0.5856
                                        -0.0650  0.0065  0.0964  0.0634 -0.0622
                                        -0.0425 -0.0143 -0.0758  0.0500
 121. (0.00966) RY*( 2) C  7             s(  2.55%)p32.75( 83.66%)d 5.40( 13.79%)
                                         0.0000 -0.0044 -0.0342  0.1559  0.0065
                                        -0.0079  0.5260 -0.3513  0.0100 -0.6284
                                         0.1034 -0.0140  0.1742  0.0156 -0.0438
                                         0.0399  0.0936  0.3530 -0.0319
 122. (0.00662) RY*( 3) C  7             s(  1.60%)p32.20( 51.38%)d29.47( 47.03%)
                                         0.0000  0.0120  0.1022 -0.0722  0.0125
                                        -0.0003  0.0882 -0.1228  0.0062 -0.0079
                                         0.0627  0.0253 -0.5241  0.4600 -0.0779
                                        -0.5297 -0.2458  0.1391  0.3222
 123. (0.00384) RY*( 4) C  7             s( 18.63%)p 2.15( 40.01%)d 2.22( 41.36%)
                                         0.0000 -0.0083 -0.1733  0.3951 -0.0081
                                        -0.0185 -0.4201 -0.2565  0.0168  0.2920
                                         0.2544 -0.0028 -0.0727 -0.0439  0.0012
                                         0.0666  0.0537  0.6346 -0.0597
 124. (0.00198) RY*( 5) C  7             s( 16.34%)p 4.13( 67.48%)d 0.99( 16.18%)
                                         0.0000 -0.0144  0.3942 -0.0810 -0.0348
                                        -0.0013  0.0629 -0.2009  0.0144  0.3589
                                        -0.0591  0.0298  0.6797  0.1875 -0.0131
                                        -0.2892  0.1501  0.1044  0.2112
 125. (0.00156) RY*( 6) C  7             s( 64.82%)p 0.40( 26.20%)d 0.14(  8.99%)
                                         0.0000  0.0125  0.7929  0.1387 -0.0125
                                         0.0209  0.1937 -0.0523  0.0118  0.1444
                                        -0.0836 -0.0227 -0.3554 -0.2577  0.0152
                                         0.2365 -0.0145  0.1085 -0.1475
 126. (0.00094) RY*( 7) C  7             s( 43.33%)p 1.09( 47.14%)d 0.22(  9.53%)
                                         0.0000  0.0006 -0.0034  0.6580 -0.0164
                                         0.0107  0.0672  0.4431  0.0084 -0.0679
                                        -0.4556 -0.0119  0.1034  0.2175  0.2611
                                        -0.0812 -0.1043  0.0763  0.0622
 127. (0.00046) RY*( 8) C  7             s(  0.65%)p21.55( 13.92%)d99.99( 85.44%)
                                         0.0000 -0.0016  0.0601 -0.0533  0.0020
                                         0.0288 -0.0131 -0.0462  0.0207 -0.0659
                                         0.3379 -0.0002 -0.0194 -0.1293  0.8879
                                        -0.2323  0.0534 -0.0805 -0.0513
 128. (0.00039) RY*( 9) C  7             s(  3.34%)p13.20( 44.10%)d15.73( 52.55%)
                                         0.0000  0.0131  0.0861  0.1019  0.1242
                                        -0.0053  0.0319  0.5019 -0.0116 -0.0908
                                         0.3551  0.0058 -0.0743 -0.2192 -0.2222
                                        -0.2313  0.5843  0.0631  0.2779
 129. (0.00029) RY*(10) C  7             s(  3.35%)p17.68( 59.27%)d11.15( 37.38%)
                                         0.0000  0.0037  0.1339  0.0512  0.1137
                                        -0.0039  0.0346  0.1609  0.0015  0.0182
                                         0.4773  0.0000  0.0755  0.5760  0.0630
                                         0.5724 -0.0729 -0.0957  0.1665
 130. (0.00014) RY*(11) C  7             s( 31.26%)p 0.59( 18.40%)d 1.61( 50.34%)
                                         0.0000 -0.0037  0.0155  0.5459 -0.1198
                                        -0.0016  0.0408 -0.2739 -0.0110  0.0677
                                         0.3194 -0.0071  0.0172  0.0165 -0.2240
                                        -0.2395 -0.0104 -0.5744 -0.2565
 131. (0.00008) RY*(12) C  7             s( 33.15%)p 0.85( 28.12%)d 1.17( 38.73%)
 132. (0.00002) RY*(13) C  7             s( 60.23%)p 0.07(  4.19%)d 0.59( 35.58%)
 133. (0.00003) RY*(14) C  7             s(  7.64%)p 4.06( 31.07%)d 8.02( 61.29%)
 134. (0.00317) RY*( 1) O  8             s(  2.06%)p46.78( 96.44%)d 0.73(  1.50%)
                                         0.0000 -0.0030  0.1339  0.0484  0.0185
                                         0.0101 -0.7064  0.0759 -0.0039  0.6049
                                        -0.0935  0.0023 -0.2893  0.0337  0.0076
                                         0.0214  0.0339  0.1147 -0.0140
 135. (0.00269) RY*( 2) O  8             s(  0.14%)p99.99( 98.98%)d 6.54(  0.88%)
                                         0.0000  0.0000  0.0257  0.0077 -0.0251
                                        -0.0043  0.0806 -0.0270  0.0006 -0.3522
                                         0.0173  0.0056 -0.9234  0.0739  0.0141
                                         0.0594  0.0361 -0.0233 -0.0572
 136. (0.00054) RY*( 3) O  8             s( 69.68%)p 0.39( 27.33%)d 0.04(  3.00%)
                                         0.0000  0.0052  0.8192  0.1370 -0.0830
                                         0.0168  0.3348  0.3493  0.0054  0.1606
                                        -0.0238 -0.0040 -0.0270 -0.1085  0.1406
                                         0.0008 -0.0334 -0.0648  0.0697
[...]
 O         -0.185  0.148 -0.048    0.324 -0.091 -0.006   -0.053  0.216 -0.129
 C          0.041 -0.010  0.003   -0.060  0.178 -0.068   -0.219  0.073  0.009
 H          0.118  0.034 -0.103   -0.167  0.062  0.076   -0.429 -0.119  0.297
 H          0.113 -0.056  0.112   -0.158  0.412 -0.201   -0.407  0.357 -0.253
 H          0.008 -0.008 -0.001   -0.142  0.107  0.023   -0.278  0.014  0.084
 H         -0.077 -0.037 -0.356    0.111  0.075  0.327    0.057 -0.049 -0.020
 H         -0.004  0.069 -0.121    0.096 -0.015  0.222    0.092  0.056  0.121
 H          0.065  0.233 -0.004    0.031 -0.265 -0.093    0.071 -0.068 -0.053
 TransDip  -0.070  0.004 -0.040    0.071  0.032 -0.006    0.074 -0.030  0.087

 Mode:                13                     14                     15
 Frequency:       481.16                 555.96                 643.19
 Force Cnst:      0.3407                 0.6262                 0.9322
 Red. Mass:       2.4978                 3.4383                 3.8246
 IR Active:          YES                    YES                    YES
 IR Intens:       57.487                 75.386                 16.959
 Raman Active:       YES                    YES                    YES
               X      Y      Z        X      Y      Z        X      Y      Z
 C         -0.006  0.021  0.064    0.037 -0.080 -0.032   -0.027 -0.036  0.045
 O          0.061  0.062  0.005   -0.103 -0.082 -0.013    0.067 -0.003 -0.048
 O         -0.075  0.000  0.022    0.076 -0.008 -0.063    0.022  0.069  0.027
 C          0.025 -0.082 -0.025    0.036  0.161  0.183   -0.084 -0.115  0.034
 C         -0.044 -0.043 -0.103    0.030 -0.009 -0.046   -0.036 -0.027  0.031
 O          0.026 -0.037  0.071    0.006 -0.019 -0.083    0.086 -0.111  0.090
 C          0.065  0.140  0.180   -0.048  0.174  0.180   -0.127  0.011 -0.110
 O          0.020 -0.067 -0.103   -0.077 -0.118  0.004    0.002 -0.104  0.113
 C         -0.019  0.019 -0.046    0.031  0.076 -0.051    0.003  0.279 -0.186
 H         -0.073 -0.208  0.015    0.085 -0.029 -0.134    0.112  0.517 -0.330
 H         -0.074 -0.119 -0.139    0.056 -0.278 -0.043    0.104  0.185 -0.053
 H         -0.001  0.204 -0.287    0.135  0.335 -0.376    0.099  0.224 -0.116
 H         -0.161  0.090 -0.036    0.110  0.083  0.262   -0.045 -0.221 -0.359
 H         -0.251 -0.270 -0.551    0.127  0.027  0.270    0.050  0.163  0.087
 H         -0.189  0.309  0.244    0.029 -0.373 -0.318    0.088  0.153  0.095
 TransDip  -0.194  0.113  0.093    0.087  0.129  0.231   -0.113 -0.013 -0.067

 Mode:                16                     17                     18
 Frequency:       762.72                 769.54                 815.04
 Force Cnst:      0.9576                 0.6492                 2.8833
 Red. Mass:       2.7938                 1.8606                 7.3669
 IR Active:          YES                    YES                    YES
 IR Intens:       23.737                 40.519                  9.562
 Raman Active:       YES                    YES                    YES
               X      Y      Z        X      Y      Z        X      Y      Z
 C          0.200 -0.043  0.133   -0.120 -0.052  0.004    0.048 -0.384  0.456
 O         -0.091  0.091  0.046    0.064 -0.068 -0.072    0.017 -0.059 -0.208
 O         -0.023 -0.086 -0.111   -0.004  0.094  0.070   -0.065  0.198  0.008
 C          0.096 -0.005 -0.016   -0.043 -0.025  0.001    0.009  0.092 -0.085
 C          0.082  0.033 -0.014    0.068  0.087 -0.053   -0.049 -0.060  0.039
 O          0.002 -0.001  0.007    0.030 -0.011  0.036    0.042  0.139 -0.125
 C         -0.096 -0.042 -0.077   -0.015 -0.013 -0.035   -0.006  0.078 -0.021
 O         -0.070  0.012  0.063    0.008  0.010  0.015    0.018  0.012 -0.028
 C         -0.030  0.024 -0.041   -0.001 -0.011 -0.004   -0.034 -0.099  0.066
 H          0.063  0.337 -0.155   -0.004  0.039  0.004   -0.004 -0.033  0.030
 H          0.072 -0.042  0.104    0.001  0.009  0.006    0.026 -0.214  0.148
 H          0.088 -0.093  0.114    0.004 -0.052  0.051    0.035 -0.098  0.065
 H         -0.011  0.309  0.375    0.070  0.428  0.619   -0.057 -0.261 -0.372
 H         -0.191 -0.396 -0.450   -0.120 -0.322 -0.201    0.074  0.213  0.135
 H         -0.143  0.035  0.112   -0.171 -0.336 -0.236    0.113  0.245  0.177
 TransDip   0.145  0.038  0.044   -0.181 -0.035 -0.088   -0.035 -0.033  0.087

 Mode:                19                     20                     21
 Frequency:       843.79                 983.32                1029.36
 Force Cnst:      0.8393                 1.3686                 1.5025
 Red. Mass:       2.0007                 2.4023                 2.4067
 IR Active:          YES                    YES                    YES
 IR Intens:       23.364                 45.780                 36.425
 Raman Active:       YES                    YES                    YES
               X      Y      Z        X      Y      Z        X      Y      Z
 C         -0.077  0.006 -0.074    0.002  0.020 -0.030   -0.049  0.021 -0.044
 O          0.005 -0.064 -0.019    0.000  0.024  0.024    0.011 -0.055 -0.027
 O          0.020  0.023  0.031    0.019 -0.022 -0.018   -0.052  0.034  0.066
 C          0.014  0.145  0.161   -0.082 -0.009  0.039    0.273 -0.016 -0.025
 C          0.067 -0.086  0.017   -0.013  0.017  0.010   -0.003  0.059  0.084
 O         -0.013 -0.013 -0.068    0.035 -0.065  0.042   -0.052  0.013 -0.007
 C         -0.016 -0.013 -0.050   -0.033  0.184 -0.089    0.019 -0.041  0.064
 O          0.011  0.007  0.014    0.120  0.014 -0.054   -0.044  0.018 -0.008
 C         -0.004 -0.022 -0.013   -0.146 -0.107  0.069   -0.074  0.019 -0.024
 H          0.009  0.118 -0.022    0.133  0.350 -0.274    0.099  0.333 -0.239
 H          0.022  0.049  0.033    0.138 -0.582  0.455    0.072 -0.156  0.166
 H          0.025 -0.126  0.122    0.213 -0.130  0.102    0.139 -0.005  0.016
 H         -0.112  0.024 -0.080    0.001 -0.052 -0.090    0.041 -0.301 -0.467
 H         -0.110 -0.220 -0.434   -0.008  0.018  0.012   -0.163 -0.200 -0.256
 H         -0.018  0.545  0.546    0.000 -0.095 -0.094    0.019 -0.332 -0.268
 TransDip   0.014  0.054  0.144   -0.150  0.155 -0.022    0.154 -0.114  0.026

 Mode:                22                     23                     24
 Frequency:      1038.30                1040.88                1221.55
 Force Cnst:      0.9312                 0.9337                 4.0114
 Red. Mass:       1.4661                 1.4627                 4.5627
 IR Active:          YES                    YES                    YES
 IR Intens:       20.075                 56.199                 89.409
 Raman Active:       YES                    YES                    YES
               X      Y      Z        X      Y      Z        X      Y      Z
 C          0.010 -0.005  0.006   -0.021  0.017 -0.015    0.007  0.036 -0.041
 O         -0.003  0.005  0.001    0.004 -0.021 -0.010   -0.001 -0.039 -0.013
 O          0.005 -0.003 -0.008   -0.017  0.012  0.025   -0.045  0.017  0.048
 C         -0.044  0.012  0.025    0.113 -0.028 -0.040    0.248 -0.025 -0.053
 C          0.029  0.025  0.052   -0.015 -0.056 -0.064   -0.016 -0.013  0.004
 O          0.008  0.003 -0.009   -0.019  0.000  0.013   -0.012 -0.072  0.065
 C         -0.025 -0.059 -0.104    0.011 -0.063 -0.031   -0.171  0.318 -0.236
 O          0.018  0.015  0.008   -0.014  0.024  0.001   -0.070 -0.062  0.076
 C          0.013  0.069  0.117   -0.061  0.044  0.056    0.139 -0.076  0.053
 H          0.038 -0.452  0.034    0.103  0.025 -0.182   -0.172 -0.512  0.440
 H         -0.080 -0.352 -0.061    0.013 -0.361  0.116   -0.065  0.093 -0.198
 H         -0.044  0.459 -0.411    0.100  0.275 -0.251   -0.298 -0.140  0.124
 H         -0.005 -0.114 -0.232   -0.015  0.229  0.409   -0.001 -0.003  0.026
 H         -0.135 -0.219 -0.279    0.189  0.275  0.331    0.043  0.115  0.053
 H         -0.024 -0.140 -0.070    0.037  0.342  0.252    0.062  0.067  0.016
 TransDip  -0.022 -0.120 -0.075    0.196  0.060  0.125    0.172  0.249 -0.007

 Mode:                25                     26                     27
 Frequency:      1362.82                1382.84                1438.91
 Force Cnst:     13.7361                 1.4233                 1.3363
 Red. Mass:      12.5526                 1.2633                 1.0955
 IR Active:          YES                    YES                    YES
 IR Intens:      150.649                 18.492                  4.223
 Raman Active:       YES                    YES                    YES
               X      Y      Z        X      Y      Z        X      Y      Z
 C          0.624  0.372 -0.036   -0.012 -0.007  0.003    0.005 -0.008 -0.006
 O         -0.117 -0.380 -0.204    0.002  0.007  0.004    0.000  0.002  0.001
 O         -0.276  0.123  0.217    0.006 -0.003 -0.005   -0.004  0.002  0.002
 C         -0.201  0.071 -0.027    0.004 -0.002 -0.001   -0.007  0.025 -0.010
 C          0.010  0.000 -0.013    0.001  0.000  0.003   -0.073  0.028 -0.016
 O          0.024 -0.056  0.042    0.001 -0.003  0.002    0.002 -0.013  0.011
 C          0.008 -0.031  0.038   -0.007  0.022 -0.018   -0.011 -0.008  0.003
 O          0.051  0.004 -0.024    0.000 -0.002  0.002    0.008  0.002 -0.004
 C         -0.001 -0.021  0.007    0.011 -0.126  0.077   -0.001 -0.002 -0.002
 H          0.032  0.183 -0.032    0.147  0.514 -0.112   -0.020 -0.016  0.024
 H         -0.040  0.063 -0.050   -0.191  0.505 -0.186    0.024  0.037  0.036
 H         -0.070  0.059 -0.081   -0.056  0.335 -0.486    0.036  0.019 -0.028
 H         -0.033  0.032 -0.014   -0.007 -0.002 -0.013    0.589 -0.377  0.291
 H          0.003 -0.051  0.035   -0.004 -0.004 -0.013   -0.166 -0.262 -0.021
 H         -0.099 -0.015  0.032   -0.002 -0.010 -0.002    0.470  0.289 -0.102
 TransDip   0.289  0.266 -0.002   -0.038  0.084 -0.103   -0.014 -0.008 -0.064

 Mode:                28                     29                     30
 Frequency:      1468.20                1486.18                1492.94
 Force Cnst:      1.3697                 1.4252                 1.3996
 Red. Mass:       1.0785                 1.0951                 1.0658
 IR Active:          YES                    YES                    YES
 IR Intens:        9.551                 43.828                 12.048
 Raman Active:       YES                    YES                    YES
               X      Y      Z        X      Y      Z        X      Y      Z
 C         -0.006 -0.004 -0.001    0.013 -0.010 -0.012    0.004 -0.002 -0.008
 O          0.001  0.004  0.002    0.000  0.002  0.003    0.000  0.001  0.002
 O          0.002  0.000 -0.002   -0.009  0.005  0.007   -0.004  0.002  0.004
 C          0.009 -0.001 -0.003   -0.003 -0.001 -0.003    0.001 -0.023  0.015
 C          0.025  0.052 -0.050    0.010  0.009 -0.010    0.004  0.000  0.003
 O         -0.002  0.000  0.001    0.001 -0.002  0.002   -0.001  0.014 -0.011
 C         -0.013  0.000  0.002    0.025  0.021 -0.028    0.003 -0.013 -0.010
 O          0.008  0.001 -0.004   -0.027 -0.009  0.017    0.000  0.002  0.001
 C          0.013  0.002  0.001   -0.059 -0.013  0.000    0.005 -0.021 -0.056
 H         -0.014  0.075  0.030    0.033 -0.412 -0.114   -0.392  0.164  0.529
 H         -0.016 -0.089 -0.044    0.094  0.464  0.241    0.375  0.026  0.514
 H         -0.140 -0.007  0.008    0.693  0.043 -0.058   -0.085  0.188 -0.290
 H          0.181 -0.169 -0.169    0.007 -0.013 -0.049   -0.026  0.019 -0.009
 H         -0.022 -0.503  0.550    0.002 -0.094  0.104    0.007  0.012 -0.008
 H         -0.483  0.046  0.274   -0.124 -0.009  0.061   -0.015 -0.012  0.007
 TransDip  -0.060 -0.037  0.069    0.174 -0.010 -0.121    0.068 -0.036  0.081

 Mode:                31                     32                     33
 Frequency:      1513.08                1600.46                1610.48
 Force Cnst:     12.9544                12.3182                17.7779
 Red. Mass:       9.6038                 8.1622                11.6337
 IR Active:          YES                    YES                    YES
 IR Intens:      360.648                527.718                524.021
 Raman Active:       YES                    YES                    YES
               X      Y      Z        X      Y      Z        X      Y      Z
 C         -0.075 -0.038  0.058   -0.015  0.017  0.020   -0.285  0.572  0.514
 O          0.001  0.012  0.000    0.000 -0.004 -0.004   -0.029 -0.251 -0.153
 O          0.045 -0.015 -0.037    0.010 -0.005 -0.009    0.221 -0.163 -0.218
 C          0.026  0.585 -0.367   -0.114  0.096 -0.071    0.042 -0.058  0.013
 C          0.003 -0.020 -0.007    0.001 -0.003 -0.004   -0.009  0.009 -0.005
 O          0.000 -0.334  0.267    0.011 -0.058  0.048   -0.004  0.021 -0.016
 C         -0.080 -0.136  0.080    0.599  0.120 -0.197   -0.019  0.022 -0.008
 O          0.056  0.029 -0.034   -0.340 -0.085  0.157    0.009 -0.001 -0.001
 C          0.015  0.001 -0.022   -0.033 -0.001  0.005   -0.014 -0.008 -0.007
 H         -0.118 -0.031  0.177    0.030  0.335 -0.027   -0.030 -0.111  0.032
 H          0.137  0.089  0.169    0.016 -0.408  0.024    0.071  0.125  0.119
 H          0.040  0.084 -0.120   -0.274 -0.024  0.011    0.177  0.014 -0.012
 H         -0.221  0.089 -0.197    0.083 -0.088 -0.075    0.084 -0.079  0.007
 H          0.035  0.115 -0.010   -0.059 -0.140 -0.060   -0.055 -0.106 -0.009
 H         -0.165 -0.155 -0.038    0.021  0.003  0.007    0.025  0.013 -0.022
 TransDip  -0.289  0.241 -0.477    0.347 -0.058 -0.646   -0.256  0.479  0.492

 Mode:                34                     35                     36
 Frequency:      2995.36                3004.84                3058.39
 Force Cnst:      5.4553                 5.5344                 6.0454
 Red. Mass:       1.0320                 1.0403                 1.0970
 IR Active:          YES                    YES                    YES
 IR Intens:       89.571                168.107                 52.087
 Raman Active:       YES                    YES                    YES
               X      Y      Z        X      Y      Z        X      Y      Z
 C          0.000  0.000  0.000    0.000  0.000  0.000    0.000 -0.001  0.000
 O          0.000  0.000  0.000    0.000  0.000  0.000    0.000  0.001  0.000
 O          0.000  0.000  0.000    0.000  0.000  0.000    0.000  0.000  0.000
 C          0.000  0.000  0.000    0.001 -0.001  0.000    0.000  0.000 -0.001
 C         -0.017  0.007 -0.038   -0.006  0.002 -0.014    0.001 -0.002  0.001
 O          0.000  0.000  0.000    0.000  0.000  0.000    0.000  0.000  0.000
 C         -0.001  0.001  0.000   -0.003  0.000  0.001   -0.001  0.000 -0.001
 O          0.001  0.000  0.000    0.001  0.000  0.000    0.000  0.000  0.000
 C          0.012 -0.011  0.011   -0.033  0.032 -0.024   -0.039 -0.052 -0.062
 H         -0.240  0.004 -0.170    0.626 -0.014  0.443    0.427 -0.026  0.291
 H          0.090  0.001 -0.056   -0.220 -0.003  0.136    0.061 -0.010 -0.065
 H          0.004  0.119  0.101   -0.008 -0.359 -0.297   -0.017  0.666  0.521
 H          0.213  0.254 -0.160    0.084  0.100 -0.061    0.016  0.016 -0.010
 H         -0.332  0.112  0.059   -0.133  0.045  0.026   -0.022  0.005  0.006
 H          0.327 -0.453  0.549    0.120 -0.166  0.203    0.000  0.002  0.004
 TransDip  -0.078 -0.112 -0.271   -0.271  0.231 -0.214   -0.110 -0.131 -0.155

 Mode:                37                     38                     39
 Frequency:      3123.76                3134.77                3182.68
 Force Cnst:      6.2900                 6.3433                 6.6321
 Red. Mass:       1.0941                 1.0956                 1.1113
 IR Active:          YES                    YES                    YES
 IR Intens:       43.972                 31.423                 16.057
 Raman Active:       YES                    YES                    YES
               X      Y      Z        X      Y      Z        X      Y      Z
 C          0.000  0.000  0.000    0.000  0.000  0.000    0.000  0.000  0.000
 O          0.000  0.000  0.000    0.000  0.000  0.000    0.000  0.000  0.000
 O          0.000  0.000  0.000    0.000  0.000  0.000    0.000  0.000  0.000
 C          0.000  0.001 -0.001    0.000  0.000  0.000    0.000  0.000  0.000
 C         -0.031  0.072 -0.037    0.007 -0.012  0.006   -0.088 -0.021  0.035
 O          0.000 -0.001  0.000    0.000  0.000  0.000    0.000  0.000  0.000
 C          0.000  0.001  0.000   -0.002  0.001  0.000   -0.001  0.000  0.001
 O          0.000  0.000  0.000    0.001  0.000  0.000    0.001  0.000  0.000
 C         -0.014  0.001  0.006   -0.075  0.009  0.046   -0.001  0.000  0.000
 H          0.042 -0.002  0.031    0.134 -0.001  0.110    0.003  0.000  0.002
 H          0.128  0.005 -0.087    0.786  0.041 -0.524    0.010  0.002 -0.007
 H         -0.003 -0.013 -0.008   -0.014 -0.162 -0.122    0.000 -0.004 -0.003
 H         -0.378 -0.410  0.224    0.053  0.059 -0.031    0.416  0.490 -0.260
 H          0.537 -0.175 -0.148   -0.093  0.030  0.025    0.649 -0.244 -0.168
 H          0.216 -0.278  0.372   -0.040  0.051 -0.069   -0.013 -0.002  0.003
 TransDip  -0.042  0.189 -0.087   -0.129 -0.033  0.121   -0.102 -0.050  0.061

 STANDARD THERMODYNAMIC QUANTITIES AT   298.15 K  AND     1.00 ATM

   This Molecule has  1 Imaginary Frequencies
   Zero point vibrational energy:       64.008 kcal/mol

   Atom    1 Element C  Has Mass   12.00000
   Atom    2 Element O  Has Mass   15.99491
   Atom    3 Element O  Has Mass   15.99491
   Atom    4 Element C  Has Mass   12.00000
   Atom    5 Element C  Has Mass   12.00000
   Atom    6 Element O  Has Mass   15.99491
   Atom    7 Element C  Has Mass   12.00000
   Atom    8 Element O  Has Mass   15.99491
   Atom    9 Element C  Has Mass   12.00000
   Atom   10 Element H  Has Mass    1.00783
   Atom   11 Element H  Has Mass    1.00783
   Atom   12 Element H  Has Mass    1.00783
   Atom   13 Element H  Has Mass    1.00783
   Atom   14 Element H  Has Mass    1.00783
   Atom   15 Element H  Has Mass    1.00783
   Molecular Mass:   130.026620 amu
   Principal axes and moments of inertia in amu*Bohr^2:
                             1           2           3
    Eigenvalues --      802.04327  1318.44573  1463.26744
          X               0.99911    -0.02645     0.03284
          Y               0.02513     0.99888     0.04000
          Z              -0.03387    -0.03914     0.99866
   Rotational Symmetry Number is   1
   The Molecule is an Asymmetric Top
   Translational Enthalpy:        0.889 kcal/mol
   Rotational Enthalpy:           0.889 kcal/mol
   Vibrational Enthalpy:         68.184 kcal/mol
   gas constant (RT):             0.592 kcal/mol
   Translational Entropy:        40.501  cal/mol.K
   Rotational Entropy:           28.827  cal/mol.K
   Vibrational Entropy:          24.982  cal/mol.K

   Total Enthalpy:               70.554 kcal/mol
   Total Entropy:                94.310  cal/mol.K
Archival summary:
1\1\bt2600-11\FREQ\ProcedureUnspecified\6-31+G*\456(2-,1)\emavera\TueJun622:04:422017TueJun622:04:422017\0\\#,FREQ,ProcedureUnspecified,6-31+G*,\\-2,1\C\O,1,1.26617\C,1,1.5017,2,121.943\O,3,1.25352,1,124.466,2,2.48106,0\C,3,1.53584,1,118.145,2,-171.912,0\H,5,1.09286,3,113.598,1,-18.0948,0\H,5,1.09911,3,108.067,1,101.565,0\H,5,1.10058,3,108.683,1,-140.954,0\C,1,1.581,2,117.021,3,-157.215,0\O,9,1.26259,1,119.51,2,-76.7357,0\O,9,1.27083,1,113.492,2,99.6496,0\C,1,2.07829,2,107.888,3,84.219,0\H,12,1.09235,1,98.3004,2,-32.8614,0\H,12,1.0924,1,91.5138,2,81.6579,0\H,12,1.10058,1,126.448,2,-159.194,0\\\@

 Total job time:  2986.63s(wall), 2987.03s(cpu) 
 Tue Jun  6 22:04:42 2017

        *************************************************************
        *                                                           *
        *  Thank you very much for using Q-Chem.  Have a nice day.  *
        *                                                           *
        *************************************************************


0 sent ACK to 0 
now end server 0 ... 
cleanup process ... done
