
Running Job 1 of 1 kari_fsm_solv.qcin
qchem kari_fsm_solv.qcin_27018.0 /tmp/kari_fsm_solv.qcin/ 1
/programs/x86_64/lib/qchem-4.3.2/bin/mpi/mpirun_qchem -machinefile /programs/x86_64/lib/qchem-4.3.2/bin/mpi/machines -np 1 /programs/x86_64/lib/qchem-4.3.2/exe/qcprog.exe kari_fsm_solv.qcin_27018.0 /tmp/kari_fsm_solv.qcin/

Process 0 of 1 is on fock - thread support 0
initial socket setup ...start
initial socket setup ...done 
now start server 0 ... 

cmd = ssh thor /programs/x86_64/lib/qchem-4.3.2/bin/get_hostid 771134658 > /tmp/kari_fsm_solv.qcin/lic.dat
                  Welcome to Q-Chem
     A Quantum Leap Into The Future Of Chemistry


 Q-Chem 4.3, Q-Chem, Inc., Pleasanton, CA (2015)

 Y. Shao,  Z. Gan,  E. Epifanovsky,  A. T. B. Gilbert,  M. Wormit,  
 J. Kussmann,  A. W. Lange,  A. Behn,  J. Deng,  X. Feng,  D. Ghosh,  
 M. Goldey,  P. R. Horn,  L. D. Jacobson,  I. Kaliman,  R. Z. Khaliullin,  
 T. Kus,  A. Landau,  J. Liu,  E. I. Proynov,  Y. M. Rhee,  R. M. Richard,  
 M. A. Rohrdanz,  R. P. Steele,  E. J. Sundstrom,  H. L. Woodcock III,  
 P. M. Zimmerman,  D. Zuev,  B. Albrecht,  E. Alguire,  B. Austin,  
 S. A. Baeppler,  G. J. O. Beran,  Y. A. Bernard,  E. Berquist,  
 K. Brandhorst,  K. B. Bravaya,  S. T. Brown,  D. Casanova,  C.-M. Chang,  
 Y. Chen,  S. H. Chien,  K. D. Closser,  D. L. Crittenden,  M. Diedenhofen,  
 R. A. DiStasio Jr.,  H. Do,  A. D. Dutoi,  R. G. Edgar,  P.-T. Fang,  
 S. Fatehi,  Q. Feng,  L. Fusti-Molnar,  A. Ghysels,  
 A. Golubeva-Zadorozhnaya,  J. Gomes,  A. Gunina,  M. W. D. Hanson-Heine,  
 P. H. P. Harbach,  A. W. Hauser,  E. G. Hohenstein,  Z. C. Holden,  K. Hui,  
 T.-C. Jagau,  H. Ji,  B. Kaduk,  K. Khistyaev,  Jaehoon Kim,  Jihan Kim,  
 R. A. King,  P. Klunzinger,  D. Kosenkov,  T. Kowalczyk,  C. M. Krauter,  
 K. U. Lao,  A. Laurent,  K. V. Lawler,  S. Lehtola,  S. V. Levchenko,  
 C. Y. Lin,  Y.-S. Lin,  F. Liu,  E. Livshits,  R. C. Lochan,  A. Luenser,  
 P. Manohar,  S. F. Manzer,  S.-P. Mao,  N. Mardirossian,  A. V. Marenich,  
 L. A. Martinez-Martinez,  S. A. Maurer,  N. J. Mayhall,  K. Nanda,  
 C. M. Oana,  R. Olivares-Amaya,  D. P. O'Neill,  J. A. Parkhill,  
 T. M. Perrine,  R. Peverati,  P. A. Pieniazek,  F. Plasser,  A. Prociuk,  
 D. R. Rehn,  E. Rosta,  N. J. Russ,  N. Sergueev,  S. M. Sharada,  
 S. Sharma,  D. W. Small,  A. Sodt,  T. Stauch,  T. Stein,  D. Stuck,  
 Y.-C. Su,  A. J. W. Thom,  T. Tsuchimochi,  L. Vogt,  O. Vydrov,  T. Wang,  
 M. A. Watson,  J. Wenzel,  A. White,  C. F. Williams,  V. Vanovschi,  
 S. Yeganeh,  S. R. Yost,  Z.-Q. You,  I. Y. Zhang,  X. Zhang,  Y. Zhao,  
 B. R. Brooks,  G. K. L. Chan,  D. M. Chipman,  C. J. Cramer,  
 W. A. Goddard III,  M. S. Gordon,  W. J. Hehre,  A. Klamt,  
 H. F. Schaefer III,  M. W. Schmidt,  C. D. Sherrill,  D. G. Truhlar,  
 A. Warshel,  X. Xu,  A. Aspuru-Guzik,  R. Baer,  A. T. Bell,  N. A. Besley,  
 J.-D. Chai,  A. Dreuw,  B. D. Dunietz,  T. R. Furlani,  S. R. Gwaltney,  
 C.-P. Hsu,  Y. Jung,  J. Kong,  D. S. Lambrecht,  W. Liang,  C. Ochsenfeld,  
 V. A. Rassolov,  L. V. Slipchenko,  J. E. Subotnik,  T. Van Voorhis,  
 J. M. Herbert,  A. I. Krylov,  P. M. W. Gill,  M. Head-Gordon

 Contributors to earlier versions of Q-Chem not listed above: 
 R. D. Adamson,  J. Baker,  E. F. C. Byrd,  A. K. Chakraborty,  C.-L. Cheng,  
 H. Dachsel,  R. J. Doerksen,  G. Hawkins,  A. Heyden,  S. Hirata,  
 G. Kedziora,  F. J. Keil,  C. Kelley,  P. P. Korambath,  W. Kurlancheek,  
 A. M. Lee,  M. S. Lee,  D. Liotard,  I. Lotan,  P. E. Maslen,  N. Nair,  
 D. Neuhauser,  R. Olson,  B. Peters,  J. Ritchie,  N. E. Schultz,  
 N. Shenvi,  A. C. Simmonett,  K. S. Thanthiriwatte,  Q. Wu,  W. Zhang

 Please cite Q-Chem as follows:
 Y. Shao et al., Mol. Phys. 113, 184-215 (2015)
 DOI: 10.1080/00268976.2014.952696

 Q-Chem 4.3.0 for Intel X86 Linux

 Parts of Q-Chem use Armadillo 5.200.1 (Boston Tea Smuggler).
 http://arma.sourceforge.net/

 Q-Chem begins on Thu Apr 27 12:10:41 2017  

Host: 
0

     Scratch files written to /tmp/kari_fsm_solv.qcin//
 Oct1215 13750_ 19228  19214 4150   
 Parallel job on  1  processors
Processing $rem in /programs/x86_64/lib/qchem-4.3.2/config/preferences.
 MEM_TOTAL  2000 
 Now reading second FSM geometry

Checking the input file for inconsistencies... 	...done.
 In fsm_init()
 FSM_FNODE : 12
 FSM_NGRAD : 3
done with init

--------------------------------------------------------------
User input:
--------------------------------------------------------------
$molecule
-2  1
C    1.35554    0.24384    0.05485
O    2.27286    0.27594   -0.81703
O    1.34948    0.86917    1.16185
C    0.08028   -0.70682   -0.22526
C   -0.23305   -0.67675   -1.78759
O    0.25010   -1.96139    0.19462
C   -1.14952    0.04215    0.39764
O   -2.00535   -0.48110    1.10685
C   -1.35638    1.53121    0.03887
H   -0.54250    1.94719   -0.55924
H   -1.42829    2.10063    0.97341
H   -2.30959    1.63212   -0.50558
H   -1.08694   -1.34541   -1.97767
H    0.66449   -1.07453   -2.27198
H   -0.44027    0.32127   -2.21502
****
C    1.49350    0.18120   -0.37275
O    1.85084    1.30923    0.07829
O    1.98910   -0.46545   -1.33773
C    0.30748   -0.49700    0.37363
C   -1.25681    0.44808   -1.42492
O    0.56613   -1.31533    1.25406
C   -1.20502   -0.09797    0.04581
O   -2.09542   -1.07992    0.24945
C   -1.46361    1.13938    0.99992
H   -2.48366    1.50237    0.79392
H   -0.73924    1.95759    0.87115
H   -1.42786    0.78455    2.03837
H   -1.05888   -0.37493   -2.12299
H   -0.54186    1.25972   -1.62866
H   -2.28030    0.81272   -1.60269
$end



$rem
jobtype         fsm
fsm_ngrad       3
fsm_nnode       12
fsm_mode     2
fsm_opt_mode 2
method          b3lyp
basis           6-31+G(d)
--------------------------------------------------------------
 ----------------------------------------------------------------
             Standard Nuclear Orientation (Angstroms)
    I     Atom           X                Y                Z
 ----------------------------------------------------------------
    1      C       1.3555400000     0.2438400000     0.0548500000
    2      O       2.2728600000     0.2759400000    -0.8170300000
    3      O       1.3494800000     0.8691700000     1.1618500000
    4      C       0.0802800000    -0.7068200000    -0.2252600000
    5      C      -0.2330500000    -0.6767500000    -1.7875900000
    6      O       0.2501000000    -1.9613900000     0.1946200000
    7      C      -1.1495200000     0.0421500000     0.3976400000
    8      O      -2.0053500000    -0.4811000000     1.1068500000
    9      C      -1.3563800000     1.5312100000     0.0388700000
   10      H      -0.5425000000     1.9471900000    -0.5592400000
   11      H      -1.4282900000     2.1006300000     0.9734100000
   12      H      -2.3095900000     1.6321200000    -0.5055800000
   13      H      -1.0869400000    -1.3454100000    -1.9776700000
   14      H       0.6644900000    -1.0745300000    -2.2719800000
   15      H      -0.4402700000     0.3212700000    -2.2150200000
 ----------------------------------------------------------------
 Nuclear Repulsion Energy =   452.2692779634 hartrees
 There are       35 alpha and       35 beta electrons
 Requested basis set is 6-31+G(d)
 There are 57 shells and 183 basis functions

 Total QAlloc Memory Limit   2000 MB
 Mega-Array Size        61 MB
 MEM_STATIC part        62 MB

                       Distance Matrix (Angstroms)
             C (  1)   O (  2)   O (  3)   C (  4)   C (  5)   O (  6)
   O (  2)  1.265970
   O (  3)  1.271426  2.262856
   C (  4)  1.615086  2.474554  2.453301
   C (  5)  2.601094  2.851173  3.686932  1.593724
   O (  6)  2.470743  3.181295  3.186886  1.333823  2.410994
   C (  7)  2.536436  3.639061  2.740982  1.568875  2.476280  2.452412
   O (  8)  3.595528  4.751579  3.616786  2.485019  3.399575  2.847890
   C (  9)  3.002014  3.934419  3.003508  2.672552  3.077810  3.847504
   H ( 10)  2.623178  3.284172  2.775584  2.746483  2.913703  4.058758
   H ( 11)  3.470033  4.498186  3.044341  3.405050  4.094577  4.463576
   H ( 12)  3.959114  4.789058  4.092824  3.355696  3.359531  4.467170
   H ( 13)  3.552824  3.906932  4.549406  2.200259  1.101074  2.624110
   H ( 14)  2.762207  2.554898  4.004793  2.159994  1.094733  2.653744
   H ( 15)  2.895382  3.052459  3.860913  2.299366  1.105297  3.390208
             C (  7)   O (  8)   C (  9)   H ( 10)   H ( 11)   H ( 12)
   O (  8)  1.228501
   C (  9)  1.545576  2.368783
   H ( 10)  2.216590  3.288218  1.092326
   H ( 11)  2.155589  2.648799  1.096711  1.776847
   H ( 12)  2.165542  2.675480  1.102369  1.795760  1.784265
   H ( 13)  2.751606  3.332382  3.523347  3.626234  4.549790  3.539436
   H ( 14)  3.415330  4.347033  4.026639  3.677104  4.999393  4.392183
   H ( 15)  2.721569  3.758736  2.717210  2.322859  3.782643  2.852169
             H ( 13)   H ( 14)
   H ( 14)  1.796525
   H ( 15)  1.803424  1.781010
 
 A cutoff of  1.0D-11 yielded   1556 shell pairs
 There are     16749 function pairs
 
 -------------------------------------------------------
 OpenMP Integral Computing Module                       
 Release: version 1.0, May 2013, Q-Chem Inc. Pittsburgh 
 -------------------------------------------------------
 Integral Job Info:
 Integral job number is                      11
 Integral operator is                         1
 short-range coefficients                     0
 long-range coefficients              100000000
 Omega coefficients                           0
 if combine SR and LR in K                    0
 Integral screening is                        0
 Integral computing path is                   2
 max size of driver memory is            800000
 size of driver memory is                593474
 size of scratch memory is              2260544
 max col of scratch BK array               1296
 max len of scratch array in speh3          155
 max len of scratch index in speh4           18
 max int batch size is                      520
 min int batch size is                       52
 fixed nKL is                                52
 max L of basis functions is                  2
 order of int derivative is                   0
 number of shells is                         57
 number of basis is                         183
 number of cartesian basis is               183
 number of contracted shell pairs          1556
 number of primitive shell pairs           5353
 maxK2 (contraction) of shell pair           36
 max number of K2 of shell pair               1
 max number of CS2 of shell pair            200
 max number of PS2 of shell pair           1200
 mem total for path MDJ                   44296
 -------------------------------------------------------
 Smallest overlap matrix eigenvalue = 2.60E-05

 Scale SEOQF with 1.000000e-01/1.000000e-01/1.000000e-01

 Standard Electronic Orientation quadrupole field applied
 Nucleus-field energy     =     0.0000000032 hartrees
 Guess from superposition of atomic densities
 Warning:  Energy on first SCF cycle will be non-variational
 A restricted hybrid HF-DFT SCF calculation will be
 performed using Pulay DIIS extrapolation
 Exchange:     0.2000 Hartree-Fock + 0.0800 Slater + 0.7200 B88
 Correlation:  0.1900 VWN1RPA + 0.8100 LYP
 Using SG-1 standard quadrature grid
 SCF converges when DIIS error is below 1.0E-08
 CPU 0.00 s  wall 0.00 s
 Inaccurate integrated density:
   Number of electrons =    70
   Numerical integral  =    67.999829050056
   Relative error      =    -2.8573870713 %
 CPU 1.19 s  wall 1.19 s
 ---------------------------------------
  Cycle       Energy         DIIS Error
 ---------------------------------------
    1    -496.1501496897      4.84E-02
 CPU 0.00 s  wall 0.00 s
 CPU 1.34 s  wall 1.34 s
    2    -494.5647643208      1.07E-02
 CPU 0.00 s  wall 0.00 s
 CPU 1.32 s  wall 1.32 s
    3    -489.1787492879      2.84E-02
 CPU 0.00 s  wall 0.00 s
 CPU 1.35 s  wall 1.35 s
    4    -494.6261223644      9.78E-03
 CPU 0.00 s  wall 0.00 s
 CPU 1.31 s  wall 1.31 s
    5    -494.9611190537      2.69E-03
 CPU 0.00 s  wall 0.00 s
 CPU 1.34 s  wall 1.34 s
    6    -494.9906117924      1.71E-03
 CPU 0.00 s  wall 0.00 s
 CPU 1.33 s  wall 1.33 s
    7    -495.0001455277      6.54E-04
 CPU 0.00 s  wall 0.00 s
 CPU 1.31 s  wall 1.31 s
    8    -495.0012519486      3.39E-04
 CPU 0.00 s  wall 0.00 s
 CPU 1.30 s  wall 1.30 s
    9    -495.0016303353      7.12E-05
 CPU 0.00 s  wall 0.00 s
 CPU 1.28 s  wall 1.28 s
   10    -495.0016433127      3.75E-05
 CPU 0.00 s  wall 0.00 s
 CPU 1.23 s  wall 1.23 s
   11    -495.0016478144      1.17E-05
 CPU 0.00 s  wall 0.00 s
 CPU 1.25 s  wall 1.25 s
   12    -495.0016483367      4.19E-06
 CPU 0.00 s  wall 0.00 s
 CPU 1.22 s  wall 1.22 s
   13    -495.0016484046      1.01E-06
 CPU 0.00 s  wall 0.00 s
 CPU 1.20 s  wall 1.20 s
   14    -495.0016484077      2.57E-07
 CPU 0.00 s  wall 0.00 s
 CPU 1.14 s  wall 1.14 s
   15    -495.0016484087      1.14E-07
 CPU 0.00 s  wall 0.00 s
 CPU 1.10 s  wall 1.10 s
   16    -495.0016484085      2.67E-08
 CPU 0.00 s  wall 0.00 s
 CPU 1.04 s  wall 1.04 s
   17    -495.0016484079      1.09E-08
 CPU 0.00 s  wall 0.00 s
 CPU 0.91 s  wall 0.91 s
   18    -495.0016484082      2.08E-09 Convergence criterion met
 ---------------------------------------
 SCF time:  CPU 59.48 s  wall 63.45 s
 SCF   energy in the final basis set = -495.0016484082
 Total energy in the final basis set = -495.0016484082
 
 --------------------------------------------------------------
 
                    Orbital Energies (a.u.)
 --------------------------------------------------------------
 
 Alpha MOs
 -- Occupied --
-18.853 -18.778 -18.777 -18.731  -9.976  -9.948  -9.920  -9.915
 -9.883  -0.743  -0.697  -0.610  -0.602  -0.466  -0.412  -0.319
 -0.230  -0.183  -0.165  -0.151  -0.140  -0.126  -0.112  -0.094
 -0.079  -0.070  -0.060  -0.054  -0.025   0.039   0.058   0.069
  0.088   0.126   0.139
 -- Virtual --
  0.218   0.238   0.260   0.266   0.279   0.293   0.301   0.304
  0.307   0.320   0.328   0.337   0.345   0.352   0.360   0.374
  0.388   0.388   0.392   0.409   0.416   0.463   0.482   0.495
  0.503   0.510   0.512   0.527   0.540   0.554   0.555   0.563
  0.569   0.578   0.585   0.591   0.606   0.608   0.617   0.626
  0.633   0.651   0.655   0.661   0.664   0.674   0.680   0.717
  0.738   0.788   0.813   0.860   0.922   0.964   0.992   0.996
  1.038   1.049   1.067   1.084   1.126   1.142   1.152   1.183
  1.195   1.228   1.255   1.285   1.289   1.345   1.370   1.390
  1.408   1.435   1.443   1.487   1.543   1.580   1.592   1.616
  1.619   1.636   1.662   1.674   1.678   1.684   1.716   1.747
  1.756   1.776   1.791   1.832   1.898   1.912   1.938   1.962
  1.990   2.030   2.063   2.073   2.094   2.105   2.153   2.183
  2.189   2.208   2.226   2.254   2.290   2.305   2.318   2.353
  2.388   2.398   2.412   2.460   2.479   2.536   2.549   2.573
  2.629   2.635   2.662   2.697   2.749   2.793   2.852   2.909
  2.964   2.988   3.024   3.087   3.169   3.297   3.349   3.394
  3.454   3.509   3.583   4.455   4.528   4.605   4.627   4.753
  4.768   4.852   4.990   5.095
 --------------------------------------------------------------
 
          Ground-State Mulliken Net Atomic Charges

     Atom                 Charge (a.u.)
  ----------------------------------------
      1 C                     0.343577
      2 O                    -0.629476
      3 O                    -0.597260
      4 C                    -0.227188
      5 C                    -0.509602
      6 O                    -0.654389
      7 C                     0.297155
      8 O                    -0.478966
      9 C                    -0.682438
     10 H                     0.227561
     11 H                     0.201663
     12 H                     0.165870
     13 H                     0.171644
     14 H                     0.226075
     15 H                     0.145774
  ----------------------------------------
  Sum of atomic charges =    -2.000000

 -----------------------------------------------------------------
                    Cartesian Multipole Moments
 -----------------------------------------------------------------
    Charge (ESU x 10^10)
                -9.6064
    Dipole Moment (Debye)
         X      -5.3615      Y       4.4517      Z      -2.0542
       Tot       7.2651
    Quadrupole Moments (Debye-Ang)
        XX     -92.9666     XY      -5.6037     YY     -82.8508
        XZ       4.8723     YZ      -0.5169     ZZ     -76.5096
    Octopole Moments (Debye-Ang^2)
       XXX     -27.0586    XXY      -8.3573    XYY      -2.8921
       YYY      36.9035    XXZ       1.7102    XYZ      -6.1183
       YYZ       1.0362    XZZ      -2.9851    YZZ       4.5181
       ZZZ      28.7088
    Hexadecapole Moments (Debye-Ang^3)
      XXXX    -924.6278   XXXY     -21.8598   XXYY    -235.5262
      XYYY      19.8981   YYYY    -593.5990   XXXZ      91.3638
      XXYZ      -9.9004   XYYZ       5.8645   YYYZ     -35.0916
      XXZZ    -238.9382   XYZZ     -12.6298   YYZZ    -166.3475
      XZZZ      28.3075   YZZZ     -48.8898   ZZZZ    -508.5371
 -----------------------------------------------------------------
 beginning FSman 

*******************************************
*******************************************
******** Starting FSM Calculation *********
*******************************************
*******************************************
-FSM parameters:
Maximum displacement of each coordinate during optimization (Angstrom)      0.05
Maximum optimization steps for each new node                                3
The scaling factor for optimization (hartrees/Angstrom^2)                   1.75
The number of LST interpolations used for reparameterization                100
-Aligning product structure to maximum coincidence with the reactant structure
 Total R --> P Distance 5.270933New node interpolation distace (Angstroms): 0.44
-Performing force calculation on reactant structure in state:0
 ----------------------------------------------------------------
             Standard Nuclear Orientation (Angstroms)
    I     Atom           X                Y                Z
 ----------------------------------------------------------------
    1      C       1.6608072392     0.0626716694     0.4835994490
    2      O       2.5781224004     0.0947715001    -0.3882759518
    3      O       1.6547472712     0.6879983708     1.5905936096
    4      C       0.3855539662    -0.8879833159     0.2034909266
    5      C       0.0722256190    -0.8579134745    -1.3588308322
    6      O       0.5553730704    -2.1425466981     0.6233687117
    7      C      -0.8442395466    -0.1390172667     0.8263876408
    8      O      -1.7000650322    -0.6622645066     1.5355938997
    9      C      -1.0510984555     1.3500348786     0.4676195333
   10      H      -0.2372227486     1.7660126843    -0.1304873117
   11      H      -1.1230080761     1.9194518749     1.4021546036
   12      H      -2.0043034273     1.4509443463    -0.0768275947
   13      H      -0.7816598767    -1.5265699473    -1.5489098295
   14      H       0.9697608845    -1.2556913762    -1.8432182770
   15      H      -0.1349932879     0.1401012610    -1.7862585775
 ----------------------------------------------------------------
 Nuclear Repulsion Energy =   452.2716636841 hartrees
 There are       35 alpha and       35 beta electrons

                       Distance Matrix (Angstroms)
             C (  1)   O (  2)   O (  3)   C (  4)   C (  5)   O (  6)
   O (  2)  1.265964
   O (  3)  1.271419  2.262844
   C (  4)  1.615078  2.474541  2.453288
   C (  5)  2.601080  2.851158  3.686912  1.593715
   O (  6)  2.470730  3.181278  3.186869  1.333816  2.410981
   C (  7)  2.536423  3.639042  2.740967  1.568867  2.476267  2.452399
   O (  8)  3.595509  4.751554  3.616767  2.485006  3.399557  2.847875
   C (  9)  3.001998  3.934398  3.003492  2.672538  3.077794  3.847484
   H ( 10)  2.623164  3.284154  2.775569  2.746468  2.913687  4.058737
   H ( 11)  3.470015  4.498163  3.044325  3.405033  4.094555  4.463553
   H ( 12)  3.959093  4.789032  4.092802  3.355679  3.359513  4.467146
   H ( 13)  3.552806  3.906911  4.549382  2.200248  1.101069  2.624096
   H ( 14)  2.762192  2.554884  4.004772  2.159983  1.094727  2.653730
   H ( 15)  2.895367  3.052443  3.860893  2.299354  1.105291  3.390190
             C (  7)   O (  8)   C (  9)   H ( 10)   H ( 11)   H ( 12)
   O (  8)  1.228494
   C (  9)  1.545568  2.368771
   H ( 10)  2.216578  3.288201  1.092320
   H ( 11)  2.155578  2.648785  1.096705  1.776837
   H ( 12)  2.165531  2.675466  1.102363  1.795751  1.784256
   H ( 13)  2.751592  3.332365  3.523328  3.626215  4.549766  3.539417
   H ( 14)  3.415312  4.347010  4.026618  3.677085  4.999366  4.392160
   H ( 15)  2.721554  3.758716  2.717196  2.322847  3.782623  2.852154
             H ( 13)   H ( 14)
   H ( 14)  1.796515
   H ( 15)  1.803415  1.781001
 
 Applying Cartesian multipole field
    Component          Value
    ---------          -----
     (2,0,0)        1.00000E-11
     (0,2,0)        2.00000E-11
     (0,0,2)       -3.00000E-11
 Nucleus-field energy     =     0.0000000026 hartrees
 Requested basis set is 6-31+G(d)
 There are 57 shells and 183 basis functions
 A cutoff of  1.0D-11 yielded   1556 shell pairs
 There are     16749 function pairs
 Smallest overlap matrix eigenvalue = 2.60E-05
 Guess from superposition of atomic densities
 Warning:  Energy on first SCF cycle will be non-variational
 A restricted hybrid HF-DFT SCF calculation will be
 performed using Pulay DIIS extrapolation
 Exchange:     0.2000 Hartree-Fock + 0.0800 Slater + 0.7200 B88
 Correlation:  0.1900 VWN1RPA + 0.8100 LYP
 Using SG-1 standard quadrature grid
 SCF converges when DIIS error is below 1.0E-08
 CPU 0.00 s  wall 0.00 s
 Inaccurate integrated density:
   Number of electrons =    70
   Numerical integral  =    67.999829107020
   Relative error      =    -2.8573869900 %
 CPU 1.20 s  wall 1.20 s
 ---------------------------------------
  Cycle       Energy         DIIS Error
 ---------------------------------------
    1    -496.1502409300      4.84E-02
 CPU 0.00 s  wall 0.00 s
 CPU 1.34 s  wall 1.34 s
    2    -494.5647636024      1.07E-02
 CPU 0.00 s  wall 0.00 s
 CPU 1.34 s  wall 1.34 s
    3    -489.1787000332      2.84E-02
 CPU 0.00 s  wall 0.00 s
 CPU 1.34 s  wall 1.34 s
    4    -494.6261320535      9.78E-03
 CPU 0.00 s  wall 0.00 s
 CPU 1.33 s  wall 1.33 s
    5    -494.9611234405      2.69E-03
 CPU 0.00 s  wall 0.00 s
 CPU 1.37 s  wall 1.37 s
    6    -494.9906119635      1.71E-03
 CPU 0.00 s  wall 0.00 s
 CPU 1.32 s  wall 1.32 s
    7    -495.0001456038      6.54E-04
 CPU 0.00 s  wall 0.00 s
 CPU 1.30 s  wall 1.30 s
    8    -495.0012519591      3.39E-04
 CPU 0.00 s  wall 0.00 s
 CPU 1.30 s  wall 1.30 s
    9    -495.0016303329      7.12E-05
 CPU 0.00 s  wall 0.00 s
 CPU 1.27 s  wall 1.27 s
   10    -495.0016433104      3.75E-05
 CPU 0.00 s  wall 0.00 s
 CPU 1.26 s  wall 1.26 s
   11    -495.0016478118      1.17E-05
 CPU 0.00 s  wall 0.00 s
 CPU 1.24 s  wall 1.24 s
   12    -495.0016483341      4.19E-06
 CPU 0.00 s  wall 0.00 s
 CPU 1.22 s  wall 1.22 s
   13    -495.0016484020      1.01E-06
 CPU 0.00 s  wall 0.00 s
 CPU 1.19 s  wall 1.19 s
   14    -495.0016484051      2.57E-07
 CPU 0.00 s  wall 0.00 s
 CPU 1.14 s  wall 1.14 s
   15    -495.0016484061      1.14E-07
 CPU 0.00 s  wall 0.00 s
 CPU 1.09 s  wall 1.09 s
   16    -495.0016484059      2.66E-08
 CPU 0.00 s  wall 0.00 s
 CPU 1.03 s  wall 1.03 s
   17    -495.0016484052      1.09E-08
 CPU 0.00 s  wall 0.00 s
 CPU 0.90 s  wall 0.90 s
   18    -495.0016484056      2.08E-09 Convergence criterion met
 ---------------------------------------
 SCF time:  CPU 59.26 s  wall 59.68 s
 SCF   energy in the final basis set = -495.0016484056
 Total energy in the final basis set = -495.0016484056
 
 --------------------------------------------------------------
 
                    Orbital Energies (a.u.)
 --------------------------------------------------------------
 
 Alpha MOs
 -- Occupied --
-18.853 -18.778 -18.777 -18.731  -9.976  -9.948  -9.920  -9.915
 -9.883  -0.743  -0.697  -0.610  -0.602  -0.466  -0.412  -0.319
 -0.230  -0.183  -0.165  -0.151  -0.140  -0.126  -0.112  -0.094
 -0.079  -0.070  -0.060  -0.054  -0.025   0.039   0.058   0.069
  0.088   0.126   0.139
 -- Virtual --
  0.218   0.238   0.260   0.266   0.279   0.293   0.301   0.304
  0.307   0.320   0.328   0.337   0.345   0.352   0.360   0.374
  0.388   0.388   0.392   0.409   0.416   0.463   0.482   0.495
  0.503   0.510   0.512   0.527   0.540   0.554   0.555   0.563
  0.569   0.578   0.585   0.591   0.606   0.608   0.617   0.626
  0.633   0.651   0.655   0.661   0.664   0.674   0.680   0.717
  0.738   0.788   0.813   0.860   0.922   0.964   0.992   0.996
  1.038   1.049   1.067   1.084   1.126   1.142   1.152   1.183
  1.195   1.228   1.255   1.285   1.289   1.345   1.370   1.390
  1.408   1.435   1.443   1.487   1.543   1.580   1.592   1.616
  1.619   1.636   1.662   1.674   1.678   1.684   1.716   1.747
  1.756   1.776   1.791   1.832   1.898   1.912   1.938   1.962
  1.990   2.030   2.063   2.073   2.094   2.105   2.153   2.183
  2.189   2.208   2.226   2.254   2.290   2.305   2.318   2.353
  2.388   2.398   2.412   2.460   2.479   2.536   2.549   2.573
  2.629   2.635   2.662   2.697   2.749   2.793   2.852   2.909
  2.964   2.988   3.024   3.087   3.169   3.297   3.349   3.394
  3.454   3.509   3.583   4.455   4.528   4.605   4.627   4.753
  4.768   4.852   4.990   5.095
 --------------------------------------------------------------
 
          Ground-State Mulliken Net Atomic Charges

     Atom                 Charge (a.u.)
  ----------------------------------------
      1 C                     0.343587
      2 O                    -0.629477
      3 O                    -0.597260
      4 C                    -0.227233
      5 C                    -0.509583
      6 O                    -0.654388
      7 C                     0.297165
      8 O                    -0.478967
      9 C                    -0.682438
     10 H                     0.227562
     11 H                     0.201664
     12 H                     0.165871
     13 H                     0.171645
     14 H                     0.226076
     15 H                     0.145775
  ----------------------------------------
  Sum of atomic charges =    -2.000000

 -----------------------------------------------------------------
                    Cartesian Multipole Moments
 -----------------------------------------------------------------
    Charge (ESU x 10^10)
                -9.6064
    Dipole Moment (Debye)
         X      -8.2940      Y       6.1920      Z      -6.1729
       Tot      12.0514
    Quadrupole Moments (Debye-Ang)
        XX     -97.1350     XY      -2.7421     YY     -84.7789
        XZ       0.6891     YZ       2.5100     ZZ     -80.0368
    Octopole Moments (Debye-Ang^2)
       XXX    -113.9712    XXY       6.2340    XYY     -26.9184
       YYY      82.4280    XXZ     -37.1530    XYZ      -8.2208
       YYZ     -35.1928    XZZ     -24.2258    YZZ      19.3932
       ZZZ     -71.5913
    Hexadecapole Moments (Debye-Ang^3)
      XXXX   -1010.3350   XXXY     -10.3054   XXYY    -244.0815
      XYYY      46.1129   YYYY    -636.7683   XXXZ      45.3673
      XXYZ     -11.8252   XYYZ      -2.9472   YYYZ      -0.3521
      XXZZ    -261.8912   XYZZ     -13.0234   YYZZ    -185.0877
      XZZZ       4.8769   YZZZ     -30.0421   ZZZZ    -544.6565
 -----------------------------------------------------------------
 Calculating analytic gradient of the SCF energy
 CPU 0.00 s  wall 0.00 s
 CPU 2.01 s  wall 2.01 s
 Gradient of SCF Energy
            1           2           3           4           5           6
    1  -0.0000705   0.0000003  -0.0000032   0.0001723   0.0000196  -0.0000414
    2  -0.0000704   0.0000034   0.0000069  -0.0000828   0.0000391   0.0000405
    3  -0.0000740   0.0000126   0.0000175  -0.0000213   0.0000164  -0.0000127
            7           8           9          10          11          12
    1  -0.0001645   0.0000460  -0.0000016  -0.0000028   0.0000052   0.0000440
    2   0.0001529   0.0000010  -0.0000215  -0.0000162  -0.0000107  -0.0000076
    3   0.0000051   0.0000129   0.0000307   0.0000299  -0.0000265   0.0000076
           13          14          15
    1   0.0000022   0.0000020  -0.0000075
    2   0.0000122  -0.0000243  -0.0000225
    3  -0.0000100   0.0000021   0.0000097
 Max gradient component =       1.723E-04
 RMS gradient           =       5.128E-05
 Gradient time:  CPU 16.73 s  wall 18.42 s
the nuclear gradient is: 
-0.0001333 -0.0001330 -0.0001398
0.0000006 0.0000064 0.0000238
-0.0000060 0.0000131 0.0000330
0.0003256 -0.0001564 -0.0000403
0.0000369 0.0000738 0.0000310
-0.0000783 0.0000766 -0.0000240
-0.0003108 0.0002889 0.0000097
0.0000869 0.0000018 0.0000243
-0.0000030 -0.0000407 0.0000580
-0.0000054 -0.0000306 0.0000565
0.0000098 -0.0000202 -0.0000501
0.0000831 -0.0000143 0.0000144
0.0000043 0.0000230 -0.0000189
0.0000038 -0.0000459 0.0000040
-0.0000142 -0.0000425 0.0000183
-Performing force calculation on product structure in state0
 ----------------------------------------------------------------
             Standard Nuclear Orientation (Angstroms)
    I     Atom           X                Y                Z
 ----------------------------------------------------------------
    1      C       1.9303861238    -0.3940426779     0.6485884231
    2      O       2.3710923256     0.7926772180     0.6808010413
    3      O       2.5449151717    -1.4453625194     0.3138858740
    4      C       0.4512139281    -0.5750602132     1.0990753626
    5      C      -0.2229120431    -0.5138494401    -1.3741208617
    6      O       0.2335792051    -0.8912881977     2.2671249493
    7      C      -0.7549537561    -0.3003983116     0.0871264743
    8      O      -1.8595545393    -1.0208858040     0.3305255728
    9      C      -1.0156341745     1.2527839453     0.2540810714
   10      H      -1.8128877965     1.5277072525    -0.4554897601
   11      H      -0.1241917427     1.8734166804     0.0783146371
   12      H      -1.3852116000     1.4305545504     1.2725889083
   13      H      -0.0057958013    -1.5783272948    -1.5276076820
   14      H       0.6817275385     0.0660055759    -1.6124600886
   15      H      -1.0317728392    -0.2239307635    -2.0624339217
 ----------------------------------------------------------------
 Nuclear Repulsion Energy =   446.9180042922 hartrees
 There are       35 alpha and       35 beta electrons

                       Distance Matrix (Angstroms)
             C (  1)   O (  2)   O (  3)   C (  4)   C (  5)   O (  6)
   O (  2)  1.266319
   O (  3)  1.262911  2.274569
   C (  4)  1.556810  2.394074  2.399486
   C (  5)  2.956755  3.557889  3.373122  2.564155
   O (  6)  2.397096  3.149782  3.076429  1.229514  3.689108
   C (  7)  2.745006  3.364436  3.500214  1.598224  1.569673  2.465510
   O (  8)  3.854575  4.616284  4.424908  2.475698  2.416920  2.854544
   C (  9)  3.398045  3.444373  4.467783  2.491320  2.529910  3.195297
   H ( 10)  4.350197  4.397399  5.331185  3.458968  2.745881  4.177583
   H ( 11)  3.112535  2.785216  4.265433  2.714421  2.796132  3.544359
   H ( 12)  3.835586  3.855764  4.963457  2.724896  3.483780  3.000090
   H ( 13)  3.144385  4.018498  3.148794  2.848660  1.097183  3.863848
   H ( 14)  2.623573  2.939567  3.076769  2.795805  1.100641  4.020998
   H ( 15)  4.019075  4.487574  4.464470  3.509656  1.100947  4.559777
             C (  7)   O (  8)   C (  9)   H ( 10)   H ( 11)   H ( 12)
   O (  8)  1.341077
   C (  9)  1.583731  2.426442
   H ( 10)  2.180740  2.667457  1.102128
   H ( 11)  2.263495  3.384092  1.100340  1.804482
   H ( 12)  2.190604  2.668716  1.097975  1.782863  1.792370
   H ( 13)  2.191280  2.683248  3.494192  3.749996  3.808877  4.335581
   H ( 14)  2.255416  3.378556  2.788092  3.114203  2.602875  3.802333
   H ( 15)  2.168660  2.654546  2.747215  2.502128  3.131353  3.739601
             H ( 13)   H ( 14)
   H ( 14)  1.784298
   H ( 15)  1.781308  1.795167
 
 Applying Cartesian multipole field
    Component          Value
    ---------          -----
     (2,0,0)        1.00000E-11
     (0,2,0)        2.00000E-11
     (0,0,2)       -3.00000E-11
 Nucleus-field energy     =     0.0000000018 hartrees
 Requested basis set is 6-31+G(d)
 There are 57 shells and 183 basis functions
 A cutoff of  1.0D-11 yielded   1544 shell pairs
 There are     16541 function pairs
 Smallest overlap matrix eigenvalue = 2.45E-05
 Guess from superposition of atomic densities
 Warning:  Energy on first SCF cycle will be non-variational
 A restricted hybrid HF-DFT SCF calculation will be
 performed using Pulay DIIS extrapolation
 Exchange:     0.2000 Hartree-Fock + 0.0800 Slater + 0.7200 B88
 Correlation:  0.1900 VWN1RPA + 0.8100 LYP
 Using SG-1 standard quadrature grid
 SCF converges when DIIS error is below 1.0E-08
 CPU 0.00 s  wall 0.00 s
 Inaccurate integrated density:
   Number of electrons =    70
   Numerical integral  =    67.999790909510
   Relative error      =    -2.8574415578 %
 CPU 1.19 s  wall 1.19 s
 ---------------------------------------
  Cycle       Energy         DIIS Error
 ---------------------------------------
    1    -496.1533805593      4.84E-02
 CPU 0.00 s  wall 0.00 s
 CPU 1.32 s  wall 1.32 s
    2    -494.5892464345      1.07E-02
 CPU 0.00 s  wall 0.00 s
 CPU 1.30 s  wall 1.30 s
    3    -489.6929015574      2.73E-02
 CPU 0.00 s  wall 0.00 s
 CPU 1.32 s  wall 1.33 s
    4    -494.6246874074      1.01E-02
 CPU 0.00 s  wall 0.00 s
 CPU 1.31 s  wall 1.31 s
    5    -494.9621753039      3.43E-03
 CPU 0.00 s  wall 0.00 s
 CPU 1.31 s  wall 1.31 s
    6    -495.0079257984      1.67E-03
 CPU 0.00 s  wall 0.00 s
 CPU 1.30 s  wall 1.30 s
    7    -495.0165572861      7.45E-04
 CPU 0.00 s  wall 0.00 s
 CPU 1.29 s  wall 1.29 s
    8    -495.0177797615      4.40E-04
 CPU 0.00 s  wall 0.00 s
 CPU 1.28 s  wall 1.28 s
    9    -495.0184352110      5.49E-05
 CPU 0.00 s  wall 0.00 s
 CPU 1.25 s  wall 1.25 s
   10    -495.0184421720      3.01E-05
 CPU 0.00 s  wall 0.00 s
 CPU 1.24 s  wall 1.24 s
   11    -495.0184452393      9.15E-06
 CPU 0.00 s  wall 0.00 s
 CPU 1.21 s  wall 1.21 s
   12    -495.0184454967      4.93E-06
 CPU 0.00 s  wall 0.00 s
 CPU 1.20 s  wall 1.20 s
   13    -495.0184455769      1.48E-06
 CPU 0.00 s  wall 0.00 s
 CPU 1.19 s  wall 1.19 s
   14    -495.0184455850      4.63E-07
 CPU 0.00 s  wall 0.00 s
 CPU 1.15 s  wall 1.15 s
   15    -495.0184455860      9.38E-08
 CPU 0.00 s  wall 0.00 s
 CPU 1.11 s  wall 1.11 s
   16    -495.0184455852      3.02E-08
 CPU 0.00 s  wall 0.00 s
 CPU 1.01 s  wall 1.01 s
   17    -495.0184455852      1.18E-08
 CPU 0.00 s  wall 0.00 s
 CPU 0.93 s  wall 0.93 s
   18    -495.0184455851      3.09E-09 Convergence criterion met
 ---------------------------------------
 SCF time:  CPU 57.84 s  wall 58.18 s
 SCF   energy in the final basis set = -495.0184455851
 Total energy in the final basis set = -495.0184455851
 
 --------------------------------------------------------------
 
                    Orbital Energies (a.u.)
 --------------------------------------------------------------
 
 Alpha MOs
 -- Occupied --
-18.842 -18.806 -18.805 -18.742  -9.976  -9.960  -9.932  -9.892
 -9.888  -0.740  -0.714  -0.640  -0.616  -0.449  -0.396  -0.336
 -0.249  -0.176  -0.155  -0.144  -0.133  -0.125  -0.114  -0.107
 -0.089  -0.072  -0.066  -0.046  -0.033   0.008   0.042   0.057
  0.073   0.113   0.122
 -- Virtual --
  0.232   0.240   0.268   0.282   0.285   0.290   0.299   0.304
  0.305   0.311   0.329   0.342   0.344   0.348   0.353   0.361
  0.372   0.387   0.401   0.407   0.429   0.467   0.475   0.484
  0.492   0.502   0.523   0.525   0.530   0.540   0.546   0.555
  0.561   0.571   0.576   0.588   0.594   0.599   0.603   0.612
  0.616   0.631   0.647   0.656   0.663   0.680   0.693   0.720
  0.743   0.784   0.808   0.824   0.931   0.952   0.980   0.999
  1.026   1.055   1.087   1.093   1.102   1.120   1.148   1.164
  1.173   1.218   1.250   1.274   1.288   1.300   1.329   1.382
  1.391   1.440   1.463   1.510   1.525   1.555   1.600   1.605
  1.629   1.635   1.650   1.655   1.672   1.694   1.715   1.736
  1.754   1.781   1.797   1.845   1.885   1.901   1.928   1.949
  1.976   2.007   2.048   2.072   2.123   2.136   2.150   2.157
  2.185   2.215   2.218   2.245   2.251   2.288   2.306   2.321
  2.362   2.380   2.407   2.469   2.481   2.500   2.554   2.560
  2.579   2.589   2.641   2.716   2.732   2.800   2.827   2.890
  2.964   3.017   3.046   3.107   3.162   3.211   3.344   3.385
  3.426   3.461   3.525   4.470   4.552   4.619   4.651   4.671
  4.757   4.783   4.908   5.060
 --------------------------------------------------------------
 
          Ground-State Mulliken Net Atomic Charges

     Atom                 Charge (a.u.)
  ----------------------------------------
      1 C                     0.187133
      2 O                    -0.589663
      3 O                    -0.595675
      4 C                     0.391256
      5 C                    -0.625085
      6 O                    -0.469147
      7 C                    -0.127261
      8 O                    -0.663865
      9 C                    -0.611241
     10 H                     0.159931
     11 H                     0.202741
     12 H                     0.191838
     13 H                     0.201578
     14 H                     0.187797
     15 H                     0.159663
  ----------------------------------------
  Sum of atomic charges =    -2.000000

 -----------------------------------------------------------------
                    Cartesian Multipole Moments
 -----------------------------------------------------------------
    Charge (ESU x 10^10)
                -9.6064
    Dipole Moment (Debye)
         X      -3.8638      Y       5.4612      Z      -5.8478
       Tot       8.8854
    Quadrupole Moments (Debye-Ang)
        XX    -110.5659     XY      -2.0166     YY     -78.3288
        XZ      -3.3820     YZ       3.7438     ZZ     -75.8963
    Octopole Moments (Debye-Ang^2)
       XXX    -112.4350    XXY      42.7213    XYY     -27.9971
       YYY      56.0103    XXZ     -39.9762    XYZ      -3.5792
       YYZ     -30.6033    XZZ     -19.9504    YZZ      28.7416
       ZZZ     -86.4462
    Hexadecapole Moments (Debye-Ang^3)
      XXXX   -1286.8119   XXXY      60.7892   XXYY    -313.9990
      XYYY      70.5149   YYYY    -460.9987   XXXZ     -98.9446
      XXYZ       8.6200   XYYZ     -32.0367   YYYZ      31.6781
      XXZZ    -251.2596   XYZZ      12.3304   YYZZ    -165.1851
      XZZZ     -80.3127   YZZZ      50.6487   ZZZZ    -580.6669
 -----------------------------------------------------------------
 Calculating analytic gradient of the SCF energy
 CPU 0.00 s  wall 0.00 s
 CPU 2.00 s  wall 2.00 s
 Gradient of SCF Energy
            1           2           3           4           5           6
    1  -0.0001698  -0.0000068   0.0001604  -0.0000935   0.0001932   0.0000866
    2   0.0001060  -0.0000417  -0.0000084  -0.0001146   0.0001026   0.0000187
    3   0.0000481   0.0000191  -0.0000072  -0.0000697  -0.0001154  -0.0000836
            7           8           9          10          11          12
    1   0.0000293  -0.0000195  -0.0001014   0.0000154  -0.0000032   0.0000598
    2   0.0001368  -0.0001126   0.0001344  -0.0000203  -0.0001261  -0.0000485
    3   0.0001368   0.0001392   0.0000235   0.0000634  -0.0002552   0.0000326
           13          14          15
    1  -0.0000684  -0.0000910   0.0000090
    2  -0.0000395   0.0000667  -0.0000535
    3  -0.0001395   0.0001957   0.0000122
 Max gradient component =       2.552E-04
 RMS gradient           =       9.947E-05
 Gradient time:  CPU 16.53 s  wall 16.69 s
the nuclear gradient is: 
-0.0003209 0.0002004 0.0000908
-0.0000128 -0.0000788 0.0000361
0.0003031 -0.0000158 -0.0000137
-0.0001767 -0.0002166 -0.0001317
0.0003651 0.0001938 -0.0002182
0.0001637 0.0000353 -0.0001580
0.0000553 0.0002586 0.0002585
-0.0000368 -0.0002127 0.0002631
-0.0001916 0.0002539 0.0000445
0.0000291 -0.0000384 0.0001198
-0.0000061 -0.0002384 -0.0004823
0.0001131 -0.0000916 0.0000616
-0.0001293 -0.0000747 -0.0002636
-0.0001720 0.0001260 0.0003699
0.0000169 -0.0001010 0.0000230

STARTING ITERATION 1
The distance between the innermost nodes (Angstroms): 5.271
-Adding two new nodes
The distance between the previous and current R_nodes (Angstroms): 0.4524
The distance between the previous and current P_nodes (Angstroms): 0.4548
-Optimizing new reactant side node
Using BFGS, step: 2 E_tol 0.0168
max_steps 3 node_spacing 0.4392 sigma 0.7000
Calling calcGrad
coords address 0x1be348d0 grads address 0x1be34bd0
 ----------------------------------------------------------------
             Standard Nuclear Orientation (Angstroms)
    I     Atom           X                Y                Z
 ----------------------------------------------------------------
    1      C       1.7008836805     0.0331744181     0.4959214749
    2      O       2.6040461435     0.1462153980    -0.3765698699
    3      O       1.7745346072     0.5543469190     1.6470230136
    4      C       0.4275707699    -0.9012052742     0.2899117718
    5      C       0.0296816402    -0.8187555701    -1.3676760959
    6      O       0.5774080973    -2.1103398655     0.7959307475
    7      C      -0.8594589566    -0.1540210724     0.7345916853
    8      O      -1.7484148851    -0.7072657433     1.4061578702
    9      C      -1.0512986767     1.3424976583     0.4336690320
   10      H      -0.3340970137     1.7921135264    -0.2558934278
   11      H      -1.0090094320     1.9180652776     1.3661343136
   12      H      -2.0598724659     1.4596127147     0.0075936045
   13      H      -0.7525213721    -1.5723884984    -1.5397675162
   14      H       0.9569222610    -1.1468023178    -1.8507493283
   15      H      -0.2700613304     0.1279191912    -1.8492669561
 ----------------------------------------------------------------
 Nuclear Repulsion Energy =   450.3477382384 hartrees
 There are       35 alpha and       35 beta electrons

                       Distance Matrix (Angstroms)
             C (  1)   O (  2)   O (  3)   C (  4)   C (  5)   O (  6)
   O (  2)  1.260842
   O (  3)  1.265733  2.224767
   C (  4)  1.592743  2.505660  2.403059
   C (  5)  2.644182  2.922467  3.744106  1.706667
   O (  6)  2.438618  3.251778  3.042700  1.319285  2.578641
   C (  7)  2.578247  3.649752  2.876150  1.553213  2.377388  2.428072
   O (  8)  3.643411  4.780216  3.749781  2.453270  3.296697  2.783962
   C (  9)  3.048395  3.930537  3.174704  2.691082  3.014030  3.834841
   H ( 10)  2.792891  3.369900  3.098303  2.851667  2.860950  4.143226
   H ( 11)  3.413738  4.385275  3.112353  3.342200  4.005345  4.366910
   H ( 12)  4.051725  4.860528  4.267307  3.441008  3.383573  4.507914
   H ( 13)  3.569462  3.946286  4.589624  2.278339  1.099736  2.741093
   H ( 14)  2.729961  2.560882  3.974520  2.218775  1.095787  2.842068
   H ( 15)  3.064883  3.229499  4.072623  2.474242  1.103616  3.567223
             C (  7)   O (  8)   C (  9)   H ( 10)   H ( 11)   H ( 12)
   O (  8)  1.243915
   C (  9)  1.538481  2.373444
   H ( 10)  2.245998  3.318073  1.091801
   H ( 11)  2.171348  2.727762  1.096612  1.761347
   H ( 12)  2.138535  2.597759  1.101125  1.777156  1.777674
   H ( 13)  2.682520  3.227804  3.532744  3.625367  4.548991  3.646440
   H ( 14)  3.311924  4.256699  3.930411  3.584344  4.858667  4.398623
   H ( 15)  2.665184  3.671628  2.701357  2.304882  3.753595  2.902544
             H ( 13)   H ( 14)
   H ( 14)  1.788863
   H ( 15)  1.794325  1.769295
 
 Applying Cartesian multipole field
    Component          Value
    ---------          -----
     (2,0,0)        1.00000E-11
     (0,2,0)        2.00000E-11
     (0,0,2)       -3.00000E-11
 Nucleus-field energy     =     0.0000000027 hartrees
 Requested basis set is 6-31+G(d)
 There are 57 shells and 183 basis functions
 A cutoff of  1.0D-11 yielded   1556 shell pairs
 There are     16750 function pairs
 Smallest overlap matrix eigenvalue = 2.50E-05
 Guess from superposition of atomic densities
 Warning:  Energy on first SCF cycle will be non-variational
 A restricted hybrid HF-DFT SCF calculation will be
 performed using Pulay DIIS extrapolation
 Exchange:     0.2000 Hartree-Fock + 0.0800 Slater + 0.7200 B88
 Correlation:  0.1900 VWN1RPA + 0.8100 LYP
 Using SG-1 standard quadrature grid
 SCF converges when DIIS error is below 1.0E-08
 CPU 0.00 s  wall 0.00 s
 Inaccurate integrated density:
   Number of electrons =    70
   Numerical integral  =    68.000606097613
   Relative error      =    -2.8562770034 %
 CPU 1.19 s  wall 1.19 s
 ---------------------------------------
  Cycle       Energy         DIIS Error
 ---------------------------------------
    1    -496.1153850646      4.81E-02
 CPU 0.00 s  wall 0.00 s
 CPU 1.33 s  wall 1.33 s
    2    -494.5592197761      1.07E-02
 CPU 0.00 s  wall 0.00 s
 CPU 1.34 s  wall 1.34 s
    3    -487.8698503951      3.13E-02
 CPU 0.00 s  wall 0.00 s
 CPU 1.34 s  wall 1.34 s
    4    -494.6546266545      8.94E-03
 CPU 0.00 s  wall 0.00 s
 CPU 1.33 s  wall 1.33 s
    5    -494.9660143295      2.05E-03
 CPU 0.00 s  wall 0.00 s
 CPU 1.32 s  wall 1.32 s
    6    -494.9750962248      2.15E-03
 CPU 0.00 s  wall 0.00 s
 CPU 1.33 s  wall 1.33 s
    7    -494.9900117539      6.18E-04
 CPU 0.00 s  wall 0.00 s
 CPU 1.33 s  wall 1.33 s
    8    -494.9908104350      3.62E-04
 CPU 0.00 s  wall 0.00 s
 CPU 1.39 s  wall 1.39 s
    9    -494.9912672316      7.39E-05
 CPU 0.00 s  wall 0.00 s
 CPU 1.27 s  wall 1.27 s
   10    -494.9912836043      3.19E-05
 CPU 0.00 s  wall 0.00 s
 CPU 1.33 s  wall 1.33 s
   11    -494.9912866530      1.38E-05
 CPU 0.00 s  wall 0.00 s
 CPU 1.29 s  wall 1.29 s
   12    -494.9912872889      3.56E-06
 CPU 0.00 s  wall 0.00 s
 CPU 1.22 s  wall 1.22 s
   13    -494.9912873456      9.28E-07
 CPU 0.00 s  wall 0.00 s
 CPU 1.18 s  wall 1.18 s
   14    -494.9912873491      2.39E-07
 CPU 0.00 s  wall 0.00 s
 CPU 1.15 s  wall 1.15 s
   15    -494.9912873485      7.51E-08
 CPU 0.00 s  wall 0.00 s
 CPU 1.10 s  wall 1.10 s
   16    -494.9912873486      2.07E-08
 CPU 0.00 s  wall 0.00 s
 CPU 0.95 s  wall 0.95 s
   17    -494.9912873494      9.34E-09 Convergence criterion met
 ---------------------------------------
 SCF time:  CPU 57.00 s  wall 57.42 s
 SCF   energy in the final basis set = -494.9912873494
 Total energy in the final basis set = -494.9912873494
 
 --------------------------------------------------------------
 
                    Orbital Energies (a.u.)
 --------------------------------------------------------------
 
 Alpha MOs
 -- Occupied --
-18.849 -18.777 -18.770 -18.744  -9.976  -9.947  -9.926  -9.924
 -9.887  -0.733  -0.699  -0.614  -0.605  -0.470  -0.410  -0.324
 -0.236  -0.187  -0.167  -0.152  -0.136  -0.123  -0.111  -0.091
 -0.081  -0.067  -0.062  -0.047  -0.028   0.038   0.055   0.072
  0.095   0.118   0.129
 -- Virtual --
  0.216   0.237   0.259   0.265   0.279   0.293   0.302   0.304
  0.307   0.317   0.331   0.339   0.346   0.351   0.358   0.371
  0.383   0.388   0.392   0.410   0.414   0.459   0.477   0.484
  0.491   0.507   0.517   0.528   0.536   0.539   0.554   0.567
  0.570   0.573   0.585   0.595   0.603   0.610   0.616   0.628
  0.631   0.647   0.652   0.663   0.669   0.674   0.679   0.725
  0.753   0.798   0.817   0.855   0.923   0.959   0.971   1.004
  1.028   1.044   1.073   1.083   1.118   1.143   1.161   1.174
  1.190   1.237   1.248   1.276   1.297   1.330   1.380   1.381
  1.414   1.427   1.447   1.497   1.548   1.570   1.585   1.612
  1.634   1.641   1.655   1.671   1.684   1.692   1.705   1.740
  1.753   1.769   1.791   1.833   1.890   1.914   1.938   1.950
  1.972   2.039   2.047   2.055   2.078   2.097   2.144   2.168
  2.189   2.206   2.245   2.256   2.275   2.302   2.322   2.343
  2.375   2.395   2.419   2.453   2.480   2.515   2.542   2.577
  2.619   2.627   2.667   2.713   2.751   2.780   2.840   2.906
  2.943   2.998   3.003   3.086   3.187   3.288   3.362   3.402
  3.471   3.496   3.571   4.456   4.536   4.571   4.642   4.725
  4.784   4.873   4.966   5.095
 --------------------------------------------------------------
 
          Ground-State Mulliken Net Atomic Charges

     Atom                 Charge (a.u.)
  ----------------------------------------
      1 C                     0.310216
      2 O                    -0.629012
      3 O                    -0.592954
      4 C                    -0.075804
      5 C                    -0.635223
      6 O                    -0.640952
      7 C                     0.300457
      8 O                    -0.481065
      9 C                    -0.706582
     10 H                     0.217509
     11 H                     0.210869
     12 H                     0.169608
     13 H                     0.177658
     14 H                     0.223960
     15 H                     0.151314
  ----------------------------------------
  Sum of atomic charges =    -2.000000

 -----------------------------------------------------------------
                    Cartesian Multipole Moments
 -----------------------------------------------------------------
    Charge (ESU x 10^10)
                -9.6064
    Dipole Moment (Debye)
         X      -8.4665      Y       6.2432      Z      -6.3211
       Tot      12.2725
    Quadrupole Moments (Debye-Ang)
        XX     -99.3516     XY      -3.4469     YY     -82.4332
        XZ      -0.6260     YZ       3.4642     ZZ     -81.4750
    Octopole Moments (Debye-Ang^2)
       XXX    -117.8755    XXY       7.1467    XYY     -26.6838
       YYY      82.3704    XXZ     -39.7194    XYZ      -7.1913
       YYZ     -35.4288    XZZ     -29.1078    YZZ      23.1027
       ZZZ     -70.3671
    Hexadecapole Moments (Debye-Ang^3)
      XXXX   -1062.4970   XXXY     -17.6974   XXYY    -245.2505
      XYYY      43.5631   YYYY    -604.8395   XXXZ      24.1278
      XXYZ      -6.1888   XYYZ      -7.6812   YYYZ      16.8872
      XXZZ    -273.4950   XYZZ     -11.6201   YYZZ    -185.1015
      XZZZ     -19.5650   YZZZ     -19.8684   ZZZZ    -558.6764
 -----------------------------------------------------------------
 Calculating analytic gradient of the SCF energy
 CPU 0.00 s  wall 0.00 s
 CPU 2.27 s  wall 2.27 s
 Gradient of SCF Energy
            1           2           3           4           5           6
    1  -0.0077241   0.0020407   0.0060875   0.0137481  -0.0102914   0.0004729
    2  -0.0032770   0.0052545  -0.0065194  -0.0127560   0.0204791  -0.0027518
    3  -0.0146972   0.0166935  -0.0093014   0.0145221  -0.0019259   0.0159606
            7           8           9          10          11          12
    1  -0.0013172  -0.0050810   0.0058407  -0.0042894  -0.0002606   0.0013865
    2   0.0078094  -0.0099216  -0.0021096   0.0035152   0.0033927  -0.0018085
    3  -0.0326002   0.0141712   0.0055207   0.0004393  -0.0020412  -0.0001785
           13          14          15
    1   0.0012172  -0.0008638  -0.0009660
    2   0.0005747   0.0007363  -0.0026177
    3  -0.0003814   0.0013114  -0.0074931
 Max gradient component =       3.260E-02
 RMS gradient           =       9.138E-03
 Gradient time:  CPU 17.94 s  wall 18.12 s
the nuclear gradient is: 
-0.0145964 -0.0061926 -0.0277735
0.0038564 0.0099296 0.0315460
0.0115036 -0.0123199 -0.0175770
0.0259799 -0.0241053 0.0274426
-0.0194478 0.0386997 -0.0036393
0.0008936 -0.0052001 0.0301611
-0.0024891 0.0147575 -0.0616050
-0.0096016 -0.0187490 0.0267795
0.0110373 -0.0039866 0.0104326
-0.0081057 0.0066427 0.0008302
-0.0004924 0.0064112 -0.0038573
0.0026200 -0.0034176 -0.0003372
0.0023001 0.0010859 -0.0007207
-0.0016324 0.0013913 0.0024781
-0.0018255 -0.0049467 -0.0141599
calcGrad Returned
Calling opt_gen...
Calculate magnitude of step
Normalize
Gradient flag: 0.3200632
Calling calcGrad
coords address 0x1be351d0 grads address 0x1be354d0
 ----------------------------------------------------------------
             Standard Nuclear Orientation (Angstroms)
    I     Atom           X                Y                Z
 ----------------------------------------------------------------
    1      C       1.7128594418     0.0358158936     0.5160255709
    2      O       2.6026580282     0.1428463400    -0.3965622830
    3      O       1.7735653088     0.5543340189     1.6626261966
    4      C       0.4120393382    -0.8852681769     0.2765059653
    5      C       0.0404068611    -0.8425947960    -1.3654246048
    6      O       0.5772462836    -2.1043390080     0.7859625184
    7      C      -0.8587610440    -0.1649160623     0.7706088880
    8      O      -1.7449645840    -0.6969270552     1.3796918037
    9      C      -1.0582556188     1.3449791916     0.4247885874
   10      H      -0.3342282264     1.7890769255    -0.2635301887
   11      H      -1.0009233103     1.9134192835     1.3666477010
   12      H      -2.0640947269     1.4630086842     0.0136521811
   13      H      -0.7518339869    -1.5756856750    -1.5386539113
   14      H       0.9573555294    -1.1408986192    -1.8522624393
   15      H      -0.2767481781     0.1303185454    -1.8430690104
 ----------------------------------------------------------------
 Nuclear Repulsion Energy =   450.4902727251 hartrees
 There are       35 alpha and       35 beta electrons

                       Distance Matrix (Angstroms)
             C (  1)   O (  2)   O (  3)   C (  4)   C (  5)   O (  6)
   O (  2)  1.279067
   O (  3)  1.259857  2.257648
   C (  4)  1.611800  2.511743  2.418168
   C (  5)  2.666188  2.911171  3.758236  1.684003
   O (  6)  2.437775  3.248153  3.044382  1.331530  2.551208
   C (  7)  2.591976  3.665846  2.870916  1.542070  2.414620  2.413237
   O (  8)  3.638596  4.770966  3.745098  2.430053  3.277870  2.779566
   C (  9)  3.066156  3.939801  3.190074  2.675399  3.032722  3.834463
   H ( 10)  2.805744  3.369432  3.110862  2.828547  2.877537  4.134115
   H ( 11)  3.407869  4.385161  3.103627  3.319266  4.017985  4.355479
   H ( 12)  4.068739  4.867205  4.274627  3.422680  3.412710  4.505454
   H ( 13)  3.590732  3.938317  4.600306  2.264085  1.093195  2.729427
   H ( 14)  2.750315  2.544422  3.986785  2.212323  1.080181  2.834243
   H ( 15)  3.087523  3.222347  4.083316  2.449172  1.129288  3.554547
             C (  7)   O (  8)   C (  9)   H ( 10)   H ( 11)   H ( 12)
   O (  8)  1.199739
   C (  9)  1.561785  2.356436
   H ( 10)  2.272150  3.297055  1.093262
   H ( 11)  2.166783  2.714346  1.101594  1.765623
   H ( 12)  2.162395  2.575506  1.093013  1.782018  1.778707
   H ( 13)  2.708210  3.205506  3.532603  3.622425  4.547161  3.655865
   H ( 14)  3.336207  4.236174  3.927752  3.574495  4.850268  4.403536
   H ( 15)  2.693922  3.636782  2.688742  2.291228  3.742480  2.901394
             H ( 13)   H ( 14)
   H ( 14)  1.791290
   H ( 15)  1.796893  1.771748
 
 Applying Cartesian multipole field
    Component          Value
    ---------          -----
     (2,0,0)        1.00000E-11
     (0,2,0)        2.00000E-11
     (0,0,2)       -3.00000E-11
 Nucleus-field energy     =     0.0000000027 hartrees
 Requested basis set is 6-31+G(d)
 There are 57 shells and 183 basis functions
 A cutoff of  1.0D-11 yielded   1556 shell pairs
 There are     16760 function pairs
 Smallest overlap matrix eigenvalue = 2.71E-05
 Guess from superposition of atomic densities
 Warning:  Energy on first SCF cycle will be non-variational
 A restricted hybrid HF-DFT SCF calculation will be
 performed using Pulay DIIS extrapolation
 Exchange:     0.2000 Hartree-Fock + 0.0800 Slater + 0.7200 B88
 Correlation:  0.1900 VWN1RPA + 0.8100 LYP
 Using SG-1 standard quadrature grid
 SCF converges when DIIS error is below 1.0E-08
 CPU 0.00 s  wall 0.00 s
 Inaccurate integrated density:
   Number of electrons =    70
   Numerical integral  =    68.000300248625
   Relative error      =    -2.8567139305 %
 CPU 1.17 s  wall 1.17 s
 ---------------------------------------
  Cycle       Energy         DIIS Error
 ---------------------------------------
    1    -496.1385563641      4.85E-02
 CPU 0.00 s  wall 0.00 s
 CPU 1.31 s  wall 1.31 s
    2    -494.5640475514      1.06E-02
 CPU 0.00 s  wall 0.00 s
 CPU 1.34 s  wall 1.34 s
    3    -488.7077742842      2.99E-02
 CPU 0.00 s  wall 0.00 s
 CPU 1.34 s  wall 1.34 s
    4    -494.6512428296      9.18E-03
 CPU 0.00 s  wall 0.00 s
 CPU 1.32 s  wall 1.32 s
    5    -494.9711672160      1.85E-03
 CPU 0.00 s  wall 0.00 s
 CPU 1.32 s  wall 1.32 s
    6    -494.9834521929      1.70E-03
 CPU 0.00 s  wall 0.00 s
 CPU 1.30 s  wall 1.30 s
    7    -494.9923871901      6.33E-04
 CPU 0.00 s  wall 0.00 s
 CPU 1.30 s  wall 1.30 s
    8    -494.9933400539      3.37E-04
 CPU 0.00 s  wall 0.00 s
 CPU 1.29 s  wall 1.29 s
    9    -494.9937364517      6.75E-05
 CPU 0.00 s  wall 0.00 s
 CPU 1.26 s  wall 1.26 s
   10    -494.9937497552      3.01E-05
 CPU 0.00 s  wall 0.00 s
 CPU 1.25 s  wall 1.25 s
   11    -494.9937525761      1.14E-05
 CPU 0.00 s  wall 0.00 s
 CPU 1.23 s  wall 1.23 s
   12    -494.9937530302      3.21E-06
 CPU 0.00 s  wall 0.00 s
 CPU 1.26 s  wall 1.26 s
   13    -494.9937530742      7.26E-07
 CPU 0.00 s  wall 0.00 s
 CPU 1.20 s  wall 1.20 s
   14    -494.9937530770      1.62E-07
 CPU 0.00 s  wall 0.00 s
 CPU 1.19 s  wall 1.19 s
   15    -494.9937530765      6.79E-08
 CPU 0.00 s  wall 0.00 s
 CPU 1.10 s  wall 1.10 s
   16    -494.9937530763      1.58E-08
 CPU 0.00 s  wall 0.00 s
 CPU 0.98 s  wall 0.98 s
   17    -494.9937530752      8.10E-09 Convergence criterion met
 ---------------------------------------
 SCF time:  CPU 56.43 s  wall 56.82 s
 SCF   energy in the final basis set = -494.9937530752
 Total energy in the final basis set = -494.9937530752
 
 --------------------------------------------------------------
 
                    Orbital Energies (a.u.)
 --------------------------------------------------------------
 
 Alpha MOs
 -- Occupied --
-18.854 -18.776 -18.775 -18.738  -9.975  -9.948  -9.921  -9.921
 -9.887  -0.761  -0.695  -0.607  -0.605  -0.465  -0.409  -0.323
 -0.232  -0.190  -0.168  -0.150  -0.143  -0.126  -0.110  -0.090
 -0.084  -0.074  -0.060  -0.052  -0.028   0.036   0.058   0.071
  0.091   0.121   0.135
 -- Virtual --
  0.217   0.237   0.259   0.268   0.279   0.295   0.302   0.306
  0.307   0.317   0.329   0.338   0.344   0.352   0.358   0.372
  0.384   0.388   0.392   0.410   0.414   0.462   0.480   0.482
  0.493   0.509   0.517   0.525   0.540   0.542   0.553   0.565
  0.568   0.574   0.584   0.595   0.600   0.609   0.617   0.628
  0.629   0.649   0.655   0.657   0.669   0.673   0.683   0.724
  0.755   0.794   0.815   0.867   0.922   0.959   0.969   0.999
  1.029   1.049   1.074   1.081   1.126   1.153   1.157   1.177
  1.185   1.239   1.252   1.281   1.291   1.333   1.380   1.390
  1.412   1.435   1.448   1.490   1.543   1.569   1.584   1.614
  1.621   1.641   1.652   1.673   1.680   1.692   1.704   1.741
  1.755   1.774   1.789   1.829   1.893   1.918   1.940   1.961
  1.979   2.035   2.042   2.054   2.072   2.093   2.146   2.167
  2.185   2.204   2.233   2.249   2.289   2.304   2.313   2.334
  2.383   2.397   2.426   2.450   2.483   2.518   2.544   2.580
  2.625   2.633   2.668   2.711   2.747   2.786   2.844   2.916
  2.971   2.999   3.018   3.080   3.184   3.302   3.364   3.415
  3.459   3.514   3.578   4.452   4.540   4.579   4.643   4.726
  4.782   4.866   4.973   5.098
 --------------------------------------------------------------
 
          Ground-State Mulliken Net Atomic Charges

     Atom                 Charge (a.u.)
  ----------------------------------------
      1 C                     0.329617
      2 O                    -0.647345
      3 O                    -0.588396
      4 C                    -0.110647
      5 C                    -0.600544
      6 O                    -0.652197
      7 C                     0.318854
      8 O                    -0.462323
      9 C                    -0.723535
     10 H                     0.217434
     11 H                     0.205819
     12 H                     0.168859
     13 H                     0.175623
     14 H                     0.227403
     15 H                     0.141377
  ----------------------------------------
  Sum of atomic charges =    -2.000000

 -----------------------------------------------------------------
                    Cartesian Multipole Moments
 -----------------------------------------------------------------
    Charge (ESU x 10^10)
                -9.6064
    Dipole Moment (Debye)
         X      -8.7490      Y       6.1297      Z      -6.0639
       Tot      12.2837
    Quadrupole Moments (Debye-Ang)
        XX     -99.1843     XY      -2.8491     YY     -83.2742
        XZ      -0.8917     YZ       3.5324     ZZ     -80.8027
    Octopole Moments (Debye-Ang^2)
       XXX    -121.1252    XXY       6.3264    XYY     -26.6181
       YYY      81.8538    XXZ     -38.3549    XYZ      -6.5701
       YYZ     -35.7552    XZZ     -30.0905    YZZ      22.2259
       ZZZ     -69.9021
    Hexadecapole Moments (Debye-Ang^3)
      XXXX   -1065.7966   XXXY     -15.3057   XXYY    -246.8707
      XYYY      46.7719   YYYY    -613.8195   XXXZ      22.7410
      XXYZ      -6.8435   XYYZ      -7.7360   YYYZ      15.5969
      XXZZ    -272.0425   XYZZ     -10.6471   YYZZ    -185.5882
      XZZZ     -22.7401   YZZZ     -20.3620   ZZZZ    -554.5544
 -----------------------------------------------------------------
 Calculating analytic gradient of the SCF energy
 CPU 0.00 s  wall 0.00 s
 CPU 2.32 s  wall 2.32 s
 Gradient of SCF Energy
            1           2           3           4           5           6
    1  -0.0043538   0.0111594   0.0001433  -0.0015633   0.0016517   0.0018963
    2  -0.0017411   0.0041591  -0.0063172  -0.0017008  -0.0055357  -0.0028704
    3   0.0106192  -0.0042935  -0.0087314   0.0092152  -0.0059007   0.0150781
            7           8           9          10          11          12
    1  -0.0327599   0.0350745  -0.0029826  -0.0029347   0.0006255   0.0051762
    2  -0.0285659   0.0190431  -0.0008662   0.0040417   0.0022743  -0.0011035
    3   0.0160078  -0.0222751  -0.0053168  -0.0000622   0.0011073   0.0017897
           13          14          15
    1   0.0023656  -0.0085712  -0.0049271
    2   0.0047745   0.0050683   0.0093397
    3   0.0000004   0.0044870  -0.0117251
 Max gradient component =       3.507E-02
 RMS gradient           =       1.110E-02
 Gradient time:  CPU 18.02 s  wall 18.26 s
the nuclear gradient is: 
-0.0082275 -0.0032901 0.0200672
0.0210881 0.0078595 -0.0081134
0.0002708 -0.0119378 -0.0164999
-0.0029541 -0.0032141 0.0174142
0.0031212 -0.0104608 -0.0111507
0.0035835 -0.0054243 0.0284934
-0.0619070 -0.0539815 0.0302502
0.0662809 0.0359861 -0.0420936
-0.0056362 -0.0016368 -0.0100472
-0.0055457 0.0076378 -0.0001175
0.0011821 0.0042977 0.0020924
0.0097815 -0.0020853 0.0033820
0.0044704 0.0090225 0.0000008
-0.0161972 0.0095776 0.0084791
-0.0093109 0.0176495 -0.0221570
calcGrad Returned
Calling opt_gen...
Calculate magnitude of step
Normalize
Hessian updated
Gradient convergence criteria satisfied
done with opt_step_by_gradient, Reactant, iter1
-Optimizing new product side node
Using BFGS, step: 2 E_tol 0.0167972
max_steps 3 node_spacing 0.4392444 sigma 0.7000000
Calling calcGrad
coords address 0x1be34a50 grads address 0x1be34d50
 ----------------------------------------------------------------
             Standard Nuclear Orientation (Angstroms)
    I     Atom           X                Y                Z
 ----------------------------------------------------------------
    1      C       1.9130914151    -0.3438716117     0.6179744190
    2      O       2.3969787243     0.8176558209     0.5689396487
    3      O       2.5746997729    -1.3944808719     0.4051613506
    4      C       0.4429256519    -0.6142501326     1.0162018570
    5      C      -0.1769552921    -0.5486286511    -1.3767135088
    6      O       0.2643736598    -1.0604155356     2.1640761865
    7      C      -0.8217587389    -0.2796731153     0.1515940718
    8      O      -1.9043527788    -0.9913527269     0.4370420136
    9      C      -1.0318937319     1.2697587360     0.2698768449
   10      H      -1.7320412803     1.5664460475    -0.5246444173
   11      H      -0.1643843622     1.9410854298     0.2146653729
   12      H      -1.5175752743     1.4433977874     1.2388334962
   13      H      -0.0859838074    -1.6327872658    -1.5103378544
   14      H       0.7678627164    -0.0688296328    -1.6658681655
   15      H      -0.9598814665    -0.1824558478    -2.0603709469
 ----------------------------------------------------------------
 Nuclear Repulsion Energy =   446.3182207903 hartrees
 There are       35 alpha and       35 beta electrons

                       Distance Matrix (Angstroms)
             C (  1)   O (  2)   O (  3)   C (  4)   C (  5)   O (  6)
   O (  2)  1.259245
   O (  3)  1.259680  2.225299
   C (  4)  1.546957  2.463478  2.350870
   C (  5)  2.896377  3.503917  3.385580  2.472772
   O (  6)  2.371104  3.258775  2.922839  1.244411  3.604704
   C (  7)  2.775074  3.426161  3.583716  1.568093  1.680426  2.416470
   O (  8)  3.876190  4.668122  4.497270  2.446906  2.543544  2.773228
   C (  9)  3.376079  3.471455  4.485977  2.506309  2.597828  3.270782
   H ( 10)  4.271052  4.336522  5.308450  3.443853  2.760046  4.256206
   H ( 11)  3.114417  2.819253  4.320286  2.746093  2.954881  3.604587
   H ( 12)  3.917815  4.020453  5.049285  2.850797  3.550566  3.209439
   H ( 13)  3.191758  4.061178  3.287121  2.774989  1.096144  3.735195
   H ( 14)  2.569656  2.904177  3.051422  2.756187  1.098407  3.988135
   H ( 15)  3.931102  4.379727  4.476731  3.408756  1.102018  4.485038
             C (  7)   O (  8)   C (  9)   H ( 10)   H ( 11)   H ( 12)
   O (  8)  1.326642
   C (  9)  1.568084  2.429353
   H ( 10)  2.166580  2.738041  1.099770
   H ( 11)  2.316870  3.417036  1.098317  1.773269
   H ( 12)  2.152957  2.592388  1.097686  1.780728  1.768541
   H ( 13)  2.265899  2.740473  3.533933  3.730441  3.969175  4.366957
   H ( 14)  2.423741  3.523353  2.962778  3.197818  2.906071  3.993413
   H ( 15)  2.218404  2.789877  2.746665  2.452212  3.212170  3.720104
             H ( 13)   H ( 14)
   H ( 14)  1.788633
   H ( 15)  1.780364  1.775850
 
 Applying Cartesian multipole field
    Component          Value
    ---------          -----
     (2,0,0)        1.00000E-11
     (0,2,0)        2.00000E-11
     (0,0,2)       -3.00000E-11
 Nucleus-field energy     =     0.0000000026 hartrees
 Requested basis set is 6-31+G(d)
 There are 57 shells and 183 basis functions
 A cutoff of  1.0D-11 yielded   1540 shell pairs
 There are     16529 function pairs
 Smallest overlap matrix eigenvalue = 3.02E-05
 Guess from superposition of atomic densities
 Warning:  Energy on first SCF cycle will be non-variational
 A restricted hybrid HF-DFT SCF calculation will be
 performed using Pulay DIIS extrapolation
 Exchange:     0.2000 Hartree-Fock + 0.0800 Slater + 0.7200 B88
 Correlation:  0.1900 VWN1RPA + 0.8100 LYP
 Using SG-1 standard quadrature grid
 SCF converges when DIIS error is below 1.0E-08
 CPU 0.00 s  wall 0.00 s
 Inaccurate integrated density:
   Number of electrons =    70
   Numerical integral  =    68.000375722908
   Relative error      =    -2.8566061101 %
 CPU 1.19 s  wall 1.19 s
 ---------------------------------------
  Cycle       Energy         DIIS Error
 ---------------------------------------
    1    -496.1285808186      4.82E-02
 CPU 0.00 s  wall 0.00 s
 CPU 1.31 s  wall 1.32 s
    2    -494.5810954089      1.07E-02
 CPU 0.00 s  wall 0.00 s
 CPU 1.34 s  wall 1.34 s
    3    -489.9392179433      2.74E-02
 CPU 0.00 s  wall 0.00 s
 CPU 1.29 s  wall 1.29 s
    4    -494.6216349513      9.96E-03
 CPU 0.00 s  wall 0.00 s
 CPU 1.17 s  wall 1.17 s
    5    -494.9625380965      2.95E-03
 CPU 0.00 s  wall 0.00 s
 CPU 1.16 s  wall 1.16 s
    6    -494.9989762761      1.37E-03
 CPU 0.00 s  wall 0.00 s
 CPU 1.15 s  wall 1.15 s
    7    -495.0044601979      6.63E-04
 CPU 0.00 s  wall 0.00 s
 CPU 1.18 s  wall 1.18 s
    8    -495.0055430265      3.56E-04
 CPU 0.00 s  wall 0.00 s
 CPU 1.15 s  wall 1.15 s
    9    -495.0059742742      4.13E-05
 CPU 0.00 s  wall 0.00 s
 CPU 1.07 s  wall 1.07 s
   10    -495.0059791419      1.66E-05
 CPU 0.00 s  wall 0.00 s
 CPU 1.20 s  wall 1.20 s
   11    -495.0059801461      6.87E-06
 CPU 0.00 s  wall 0.00 s
 CPU 1.20 s  wall 1.20 s
   12    -495.0059802703      3.89E-06
 CPU 0.00 s  wall 0.00 s
 CPU 1.18 s  wall 1.18 s
   13    -495.0059803201      1.04E-06
 CPU 0.00 s  wall 0.00 s
 CPU 1.17 s  wall 1.17 s
   14    -495.0059803242      3.83E-07
 CPU 0.00 s  wall 0.00 s
 CPU 1.13 s  wall 1.13 s
   15    -495.0059803251      8.52E-08
 CPU 0.00 s  wall 0.00 s
 CPU 1.09 s  wall 1.09 s
   16    -495.0059803243      1.71E-08
 CPU 0.00 s  wall 0.00 s
 CPU 0.98 s  wall 0.98 s
   17    -495.0059803243      9.77E-09 Convergence criterion met
 ---------------------------------------
 SCF time:  CPU 52.49 s  wall 52.77 s
 SCF   energy in the final basis set = -495.0059803243
 Total energy in the final basis set = -495.0059803243
 
 --------------------------------------------------------------
 
                    Orbital Energies (a.u.)
 --------------------------------------------------------------
 
 Alpha MOs
 -- Occupied --
-18.837 -18.802 -18.796 -18.753  -9.973  -9.958  -9.941  -9.897
 -9.889  -0.736  -0.709  -0.633  -0.625  -0.449  -0.397  -0.338
 -0.256  -0.175  -0.151  -0.142  -0.133  -0.125  -0.115  -0.104
 -0.083  -0.069  -0.063  -0.046  -0.037   0.016   0.048   0.067
  0.071   0.102   0.114
 -- Virtual --
  0.230   0.240   0.268   0.281   0.283   0.288   0.299   0.304
  0.306   0.311   0.329   0.340   0.346   0.350   0.358   0.360
  0.368   0.385   0.402   0.406   0.433   0.456   0.474   0.485
  0.490   0.502   0.506   0.526   0.531   0.536   0.545   0.555
  0.567   0.571   0.575   0.584   0.596   0.603   0.605   0.616
  0.620   0.637   0.643   0.659   0.665   0.688   0.692   0.724
  0.737   0.800   0.811   0.826   0.925   0.942   0.972   1.004
  1.033   1.052   1.083   1.091   1.105   1.115   1.148   1.169
  1.181   1.213   1.249   1.267   1.283   1.301   1.339   1.377
  1.385   1.426   1.457   1.514   1.526   1.560   1.598   1.612
  1.628   1.641   1.646   1.657   1.675   1.694   1.710   1.740
  1.745   1.783   1.793   1.845   1.880   1.916   1.927   1.960
  1.972   1.986   2.030   2.074   2.093   2.130   2.137   2.166
  2.180   2.199   2.240   2.245   2.256   2.266   2.303   2.313
  2.369   2.377   2.403   2.459   2.480   2.510   2.548   2.562
  2.577   2.587   2.662   2.714   2.721   2.805   2.819   2.891
  2.958   3.009   3.036   3.099   3.152   3.222   3.359   3.401
  3.440   3.485   3.525   4.467   4.557   4.608   4.637   4.666
  4.767   4.805   4.904   5.062
 --------------------------------------------------------------
 
          Ground-State Mulliken Net Atomic Charges

     Atom                 Charge (a.u.)
  ----------------------------------------
      1 C                     0.173325
      2 O                    -0.598258
      3 O                    -0.585350
      4 C                     0.412257
      5 C                    -0.739031
      6 O                    -0.467083
      7 C                     0.040170
      8 O                    -0.655257
      9 C                    -0.680551
     10 H                     0.155725
     11 H                     0.207897
     12 H                     0.191524
     13 H                     0.198455
     14 H                     0.197053
     15 H                     0.149124
  ----------------------------------------
  Sum of atomic charges =    -2.000000

 -----------------------------------------------------------------
                    Cartesian Multipole Moments
 -----------------------------------------------------------------
    Charge (ESU x 10^10)
                -9.6064
    Dipole Moment (Debye)
         X      -4.3498      Y       5.7277      Z      -5.7259
       Tot       9.1932
    Quadrupole Moments (Debye-Ang)
        XX    -111.5139     XY      -1.8861     YY     -78.0378
        XZ      -3.4023     YZ       5.2715     ZZ     -75.9322
    Octopole Moments (Debye-Ang^2)
       XXX    -114.8180    XXY      42.5746    XYY     -29.8826
       YYY      58.5193    XXZ     -41.7002    XYZ      -1.6745
       YYZ     -32.3414    XZZ     -18.8956    YZZ      32.6468
       ZZZ     -78.8396
    Hexadecapole Moments (Debye-Ang^3)
      XXXX   -1315.9080   XXXY      58.7318   XXYY    -316.7180
      XYYY      66.5923   YYYY    -462.0646   XXXZ     -91.4688
      XXYZ      17.1697   XYYZ     -30.5963   YYYZ      43.0584
      XXZZ    -251.4981   XYZZ      14.1647   YYZZ    -169.1492
      XZZZ     -73.2075   YZZZ      57.9133   ZZZZ    -560.1495
 -----------------------------------------------------------------
 Calculating analytic gradient of the SCF energy
 CPU 0.00 s  wall 0.00 s
 CPU 2.05 s  wall 2.05 s
 Gradient of SCF Energy
            1           2           3           4           5           6
    1  -0.0150547   0.0120634  -0.0001941   0.0110389   0.0280970  -0.0065507
    2   0.0082388  -0.0153973   0.0140195  -0.0062990  -0.0021634  -0.0024425
    3   0.0062031  -0.0038030   0.0030654  -0.0419736  -0.0041555   0.0126823
            7           8           9          10          11          12
    1  -0.0343718  -0.0019950   0.0077331   0.0036014  -0.0065406   0.0020482
    2   0.0086510  -0.0064375  -0.0046676  -0.0002923   0.0070198  -0.0005752
    3   0.0247435   0.0096247  -0.0022151   0.0001777   0.0018952  -0.0007029
           13          14          15
    1  -0.0005625  -0.0004016   0.0010891
    2   0.0005237  -0.0021173   0.0019394
    3  -0.0007835  -0.0082179   0.0034595
 Max gradient component =       4.197E-02
 RMS gradient           =       1.172E-02
 Gradient time:  CPU 16.87 s  wall 17.00 s
the nuclear gradient is: 
-0.0284491 0.0155690 0.0117222
0.0227964 -0.0290965 -0.0071866
-0.0003669 0.0264928 0.0057927
0.0208603 -0.0119033 -0.0793182
0.0530954 -0.0040882 -0.0078528
-0.0123790 -0.0046157 0.0239660
-0.0649529 0.0163479 0.0467581
-0.0037699 -0.0121651 0.0181880
0.0146133 -0.0088205 -0.0041859
0.0068056 -0.0005523 0.0003357
-0.0123599 0.0132654 0.0035815
0.0038705 -0.0010870 -0.0013283
-0.0010630 0.0009897 -0.0014807
-0.0007590 -0.0040012 -0.0155295
0.0020581 0.0036649 0.0065376
calcGrad Returned
Calling opt_gen...
Calculate magnitude of step
Normalize
Gradient flag: 0.5919691
Calling calcGrad
coords address 0x1be35350 grads address 0x1be35650
 ----------------------------------------------------------------
             Standard Nuclear Orientation (Angstroms)
    I     Atom           X                Y                Z
 ----------------------------------------------------------------
    1      C       1.9239327868    -0.3474595517     0.6121933055
    2      O       2.3884098048     0.8311639242     0.5661821097
    3      O       2.5759807797    -1.4022128595     0.4069067104
    4      C       0.4341670487    -0.6111180543     1.0448374367
    5      C      -0.1966828551    -0.5482922288    -1.3731927958
    6      O       0.2709169570    -1.0655988420     2.1494215049
    7      C      -0.7978239337    -0.2852903615     0.1353719899
    8      O      -1.9044629118    -0.9848826565     0.4342798173
    9      C      -1.0382929922     1.2741955659     0.2726693465
   10      H      -1.7305164625     1.5685586049    -0.5273333439
   11      H      -0.1607314640     1.9380768957     0.2199806714
   12      H      -1.5248536202     1.4444259548     1.2378516618
   13      H      -0.0888750791    -1.6350152645    -1.5088723250
   14      H       0.7715420790    -0.0728591252    -1.6614225862
   15      H      -0.9576086196    -0.1820944462    -2.0624394510
 ----------------------------------------------------------------
 Nuclear Repulsion Energy =   446.4054305656 hartrees
 There are       35 alpha and       35 beta electrons

                       Distance Matrix (Angstroms)
             C (  1)   O (  2)   O (  3)   C (  4)   C (  5)   O (  6)
   O (  2)  1.267679
   O (  3)  1.256906  2.246892
   C (  4)  1.573562  2.475551  2.370686
   C (  5)  2.911890  3.513798  3.403762  2.499758
   O (  6)  2.368809  3.253941  2.909121  1.205533  3.590970
   C (  7)  2.763907  3.403550  3.564240  1.565597  1.645086  2.409872
   O (  8)  3.885174  4.663065  4.499921  2.445745  2.524694  2.771372
   C (  9)  3.394087  3.467668  4.499351  2.513720  2.595887  3.272746
   H ( 10)  4.280730  4.324937  5.314528  3.450879  2.747577  4.255530
   H ( 11)  3.118226  2.800577  4.322276  2.744574  2.953223  3.595988
   H ( 12)  3.936550  4.017569  5.060698  2.846099  3.542953  3.218070
   H ( 13)  3.195014  4.065075  3.290268  2.800602  1.100454  3.719785
   H ( 14)  2.563735  2.897195  3.049781  2.779818  1.116500  3.969722
   H ( 15)  3.935008  4.374035  4.480247  3.431657  1.090032  4.475447
             C (  7)   O (  8)   C (  9)   H ( 10)   H ( 11)   H ( 12)
   O (  8)  1.342917
   C (  9)  1.583879  2.424830
   H ( 10)  2.178497  2.734048  1.098102
   H ( 11)  2.314391  3.410310  1.101648  1.777427
   H ( 12)  2.176224  2.586768  1.094210  1.781456  1.772169
   H ( 13)  2.242299  2.737676  3.541016  3.731125  3.970023  4.369152
   H ( 14)  2.395101  3.519199  2.971661  3.200111  2.907349  3.997672
   H ( 15)  2.206027  2.788299  2.753184  2.453309  3.215522  3.722802
             H ( 13)   H ( 14)
   H ( 14)  1.789950
   H ( 15)  1.781043  1.778401
 
 Applying Cartesian multipole field
    Component          Value
    ---------          -----
     (2,0,0)        1.00000E-11
     (0,2,0)        2.00000E-11
     (0,0,2)       -3.00000E-11
 Nucleus-field energy     =     0.0000000027 hartrees
 Requested basis set is 6-31+G(d)
 There are 57 shells and 183 basis functions
 A cutoff of  1.0D-11 yielded   1541 shell pairs
 There are     16530 function pairs
 Smallest overlap matrix eigenvalue = 2.97E-05
 Guess from superposition of atomic densities
 Warning:  Energy on first SCF cycle will be non-variational
 A restricted hybrid HF-DFT SCF calculation will be
 performed using Pulay DIIS extrapolation
 Exchange:     0.2000 Hartree-Fock + 0.0800 Slater + 0.7200 B88
 Correlation:  0.1900 VWN1RPA + 0.8100 LYP
 Using SG-1 standard quadrature grid
 SCF converges when DIIS error is below 1.0E-08
 CPU 0.00 s  wall 0.00 s
 Inaccurate integrated density:
   Number of electrons =    70
   Numerical integral  =    68.000220976745
   Relative error      =    -2.8568271761 %
 CPU 1.09 s  wall 1.09 s
 ---------------------------------------
  Cycle       Energy         DIIS Error
 ---------------------------------------
    1    -496.1477737045      4.85E-02
 CPU 0.00 s  wall 0.00 s
 CPU 1.21 s  wall 1.21 s
    2    -494.5855159780      1.07E-02
 CPU 0.00 s  wall 0.00 s
 CPU 1.21 s  wall 1.21 s
    3    -489.8092791781      2.72E-02
 CPU 0.00 s  wall 0.00 s
 CPU 1.21 s  wall 1.21 s
    4    -494.6152969855      1.01E-02
 CPU 0.00 s  wall 0.00 s
 CPU 1.19 s  wall 1.19 s
    5    -494.9565033809      3.33E-03
 CPU 0.00 s  wall 0.00 s
 CPU 1.19 s  wall 1.19 s
    6    -495.0022058939      1.45E-03
 CPU 0.00 s  wall 0.00 s
 CPU 1.19 s  wall 1.19 s
    7    -495.0084419559      7.11E-04
 CPU 0.00 s  wall 0.00 s
 CPU 1.18 s  wall 1.18 s
    8    -495.0096694825      3.88E-04
 CPU 0.00 s  wall 0.00 s
 CPU 1.17 s  wall 1.17 s
    9    -495.0101775008      4.70E-05
 CPU 0.00 s  wall 0.00 s
 CPU 1.13 s  wall 1.13 s
   10    -495.0101835598      2.06E-05
 CPU 0.00 s  wall 0.00 s
 CPU 1.13 s  wall 1.13 s
   11    -495.0101849988      8.22E-06
 CPU 0.00 s  wall 0.00 s
 CPU 1.11 s  wall 1.11 s
   12    -495.0101851971      3.99E-06
 CPU 0.00 s  wall 0.00 s
 CPU 1.09 s  wall 1.09 s
   13    -495.0101852484      1.27E-06
 CPU 0.00 s  wall 0.00 s
 CPU 1.08 s  wall 1.08 s
   14    -495.0101852539      4.36E-07
 CPU 0.00 s  wall 0.00 s
 CPU 1.04 s  wall 1.04 s
[...]
 Calculating analytic gradient of the SCF energy
 CPU 0.00 s  wall 0.00 s
 CPU 2.03 s  wall 2.03 s
 Gradient of SCF Energy
            1           2           3           4           5           6
    1  -0.0012155   0.0093648  -0.0023396  -0.0005332   0.0051720  -0.0033852
    2   0.0018354  -0.0025573  -0.0059878  -0.0032392   0.0022173   0.0097698
    3  -0.0323507   0.0212691  -0.0009521  -0.0111326   0.0152136   0.0172879
            7           8           9          10          11          12
    1   0.0082157  -0.0073996  -0.0010381  -0.0026657  -0.0008023  -0.0024828
    2   0.0004719  -0.0076686  -0.0002438   0.0009589   0.0002826  -0.0020598
    3  -0.0106941   0.0094119  -0.0006183   0.0003693   0.0002629   0.0012022
           13          14          15
    1   0.0011150  -0.0019683  -0.0000371
    2   0.0051281   0.0007351   0.0003574
    3  -0.0020238  -0.0041995  -0.0030457
 Max gradient component =       3.235E-02
 RMS gradient           =       8.046E-03
 Gradient time:  CPU 15.93 s  wall 16.04 s
the nuclear gradient is: 
-0.0022970 0.0034684 -0.0611337
0.0176967 -0.0048325 0.0401926
-0.0044212 -0.0113153 -0.0017993
-0.0010075 -0.0061211 -0.0210375
0.0097736 0.0041900 0.0287494
-0.0063971 0.0184622 0.0326692
0.0155254 0.0008918 -0.0202088
-0.0139832 -0.0144915 0.0177858
-0.0019617 -0.0004607 -0.0011684
-0.0050375 0.0018121 0.0006979
-0.0015161 0.0005340 0.0004968
-0.0046918 -0.0038925 0.0022717
0.0021071 0.0096906 -0.0038244
-0.0037195 0.0013890 -0.0079358
-0.0000701 0.0006754 -0.0057555
 ----------------------------------------------------------------
             Standard Nuclear Orientation (Angstroms)
    I     Atom           X                Y                Z
 ----------------------------------------------------------------
    1      C       1.8861645811    -0.0494090025     0.5698807005
    2      O       2.4445422001     0.5244224506    -0.3951988609
    3      O       2.3855160682    -0.1381615859     1.7334435936
    4      C       0.4678102178    -0.8189238541     0.5854868308
    5      C      -0.0709307326    -0.7849245248    -1.3993400532
    6      O       0.4888838752    -1.9305867353     1.1829989600
    7      C      -0.8798759413    -0.1607149241     0.5199322383
    8      O      -1.9161281094    -0.7929732309     0.8819299233
    9      C      -1.0800962651     1.3615779626     0.3493191927
   10      H      -0.8161021327     1.7665031486    -0.6340113382
   11      H      -0.4974327722     1.9111468562     1.1033846303
   12      H      -2.1514847448     1.5314672757     0.5353052390
   13      H      -0.5702783434    -1.7464756572    -1.5153801699
   14      H       0.9415815793    -0.7748480378    -1.8131301878
   15      H      -0.6547127759    -0.0065885465    -1.9242240990
 ----------------------------------------------------------------
 Nuclear Repulsion Energy =   444.6153367813 hartrees
 There are       35 alpha and       35 beta electrons

                       Distance Matrix (Angstroms)
             C (  1)   O (  2)   O (  3)   C (  4)   C (  5)   O (  6)
   O (  2)  1.253972
   O (  3)  1.269294  2.230162
   C (  4)  1.613730  2.583369  2.336416
   C (  5)  2.872113  3.008371  4.033208  2.056924
   O (  6)  2.422217  3.513172  2.667019  1.262244  2.880002
   C (  7)  2.768730  3.515485  3.483662  1.501264  2.174313  2.333582
   O (  8)  3.886861  4.730966  4.433734  2.402439  2.934112  2.677478
   C (  9)  3.292147  3.698407  4.021876  2.684470  2.946811  3.740998
   H ( 10)  3.471187  3.497370  4.413949  3.133694  2.766006  4.321225
   H ( 11)  3.132083  3.581058  3.592775  2.941632  3.703287  3.967124
   H ( 12)  4.336240  4.796190  4.980720  3.519597  3.665683  4.401917
   H ( 13)  3.641766  3.937122  4.677419  2.520243  1.089676  2.904647
   H ( 14)  2.664065  2.440804  3.881817  2.445356  1.093849  3.243063
   H ( 15)  3.560681  3.496466  4.758029  2.866809  1.105492  3.829415
             C (  7)   O (  8)   C (  9)   H ( 10)   H ( 11)   H ( 12)
   O (  8)  1.266733
   C (  9)  1.544854  2.371648
   H ( 10)  2.247181  3.171601  1.095717
   H ( 11)  2.186159  3.061700  1.100062  1.772291
   H ( 12)  2.116768  2.361899  1.100603  1.790472  1.789625
   H ( 13)  2.598650  2.909910  3.660193  3.630187  4.499049  4.177372
   H ( 14)  3.022920  3.928127  3.650710  3.307301  4.217984  4.516780
   H ( 15)  2.459340  3.175542  2.687346  2.198761  3.587319  3.264234
             H ( 13)   H ( 14)
   H ( 14)  1.821657
   H ( 15)  1.789271  1.775027
 
 Applying Cartesian multipole field
    Component          Value
    ---------          -----
     (2,0,0)        1.00000E-11
     (0,2,0)        2.00000E-11
     (0,0,2)       -3.00000E-11
 Nucleus-field energy     =     0.0000000031 hartrees
 Requested basis set is 6-31+G(d)
 There are 57 shells and 183 basis functions
 A cutoff of  1.0D-11 yielded   1542 shell pairs
 There are     16582 function pairs
 Smallest overlap matrix eigenvalue = 2.25E-05
 Guess from superposition of atomic densities
 Warning:  Energy on first SCF cycle will be non-variational
 A restricted hybrid HF-DFT SCF calculation will be
 performed using Pulay DIIS extrapolation
 Exchange:     0.2000 Hartree-Fock + 0.0800 Slater + 0.7200 B88
 Correlation:  0.1900 VWN1RPA + 0.8100 LYP
 Using SG-1 standard quadrature grid
 SCF converges when DIIS error is below 1.0E-08
 CPU 0.00 s  wall 0.00 s
 Inaccurate integrated density:
   Number of electrons =    70
   Numerical integral  =    67.999496163202
   Relative error      =    -2.8578626240 %
 CPU 1.07 s  wall 1.07 s
 ---------------------------------------
  Cycle       Energy         DIIS Error
 ---------------------------------------
    1    -496.0676390565      4.80E-02
 CPU 0.00 s  wall 0.00 s
 CPU 1.22 s  wall 1.22 s
    2    -494.5394257211      1.06E-02
 CPU 0.00 s  wall 0.00 s
 CPU 1.21 s  wall 1.21 s
    3    -490.4965852904      2.87E-02
 CPU 0.00 s  wall 0.00 s
 CPU 1.21 s  wall 1.21 s
    4    -494.6537797962      8.45E-03
 CPU 0.00 s  wall 0.00 s
 CPU 1.20 s  wall 1.20 s
    5    -494.9487596646      1.50E-03
 CPU 0.00 s  wall 0.00 s
 CPU 1.19 s  wall 1.19 s
    6    -494.9503951592      1.80E-03
 CPU 0.00 s  wall 0.00 s
 CPU 1.17 s  wall 1.17 s
    7    -494.9603462021      5.73E-04
 CPU 0.00 s  wall 0.00 s
 CPU 1.17 s  wall 1.17 s
    8    -494.9613044347      2.02E-04
 CPU 0.00 s  wall 0.00 s
 CPU 1.16 s  wall 1.16 s
    9    -494.9614549006      3.91E-05
 CPU 0.00 s  wall 0.00 s
 CPU 1.15 s  wall 1.15 s
   10    -494.9614602124      2.09E-05
 CPU 0.00 s  wall 0.00 s
 CPU 1.11 s  wall 1.11 s
   11    -494.9614616927      6.57E-06
 CPU 0.00 s  wall 0.00 s
 CPU 1.11 s  wall 1.11 s
   12    -494.9614618248      3.57E-06
 CPU 0.00 s  wall 0.00 s
 CPU 1.09 s  wall 1.09 s
   13    -494.9614618716      9.16E-07
 CPU 0.00 s  wall 0.00 s
 CPU 1.07 s  wall 1.07 s
   14    -494.9614618743      3.26E-07
 CPU 0.00 s  wall 0.00 s
 CPU 1.05 s  wall 1.05 s
   15    -494.9614618752      7.74E-08
 CPU 0.00 s  wall 0.00 s
 CPU 1.01 s  wall 1.01 s
   16    -494.9614618725      3.24E-08
 CPU 0.00 s  wall 0.00 s
 CPU 0.94 s  wall 0.94 s
   17    -494.9614618728      7.42E-09 Convergence criterion met
 ---------------------------------------
 SCF time:  CPU 50.47 s  wall 50.80 s
 SCF   energy in the final basis set = -494.9614618728
 Total energy in the final basis set = -494.9614618728
 
 --------------------------------------------------------------
 
                    Orbital Energies (a.u.)
 --------------------------------------------------------------
 
 Alpha MOs
 -- Occupied --
-18.817 -18.789 -18.776 -18.775  -9.968  -9.960  -9.942  -9.922
 -9.883  -0.714  -0.703  -0.658  -0.613  -0.463  -0.395  -0.330
 -0.242  -0.186  -0.163  -0.144  -0.135  -0.108  -0.104  -0.102
 -0.082  -0.081  -0.069  -0.057  -0.004   0.037   0.052   0.065
  0.092   0.100   0.114
 -- Virtual --
  0.219   0.240   0.263   0.272   0.280   0.297   0.300   0.309
  0.312   0.322   0.334   0.337   0.341   0.343   0.347   0.362
  0.375   0.385   0.395   0.403   0.409   0.426   0.466   0.474
  0.494   0.496   0.511   0.521   0.533   0.538   0.546   0.554
  0.562   0.574   0.578   0.590   0.594   0.600   0.607   0.611
  0.623   0.641   0.645   0.655   0.674   0.694   0.706   0.726
  0.749   0.787   0.827   0.880   0.922   0.943   0.971   0.991
  1.012   1.044   1.097   1.107   1.128   1.146   1.150   1.167
  1.195   1.232   1.240   1.263   1.278   1.310   1.337   1.369
  1.392   1.426   1.445   1.497   1.525   1.534   1.559   1.618
  1.622   1.637   1.647   1.661   1.671   1.681   1.689   1.736
  1.739   1.760   1.766   1.814   1.850   1.885   1.930   1.950
  1.970   2.013   2.034   2.073   2.091   2.106   2.139   2.147
  2.184   2.213   2.219   2.246   2.265   2.282   2.293   2.327
  2.342   2.389   2.421   2.477   2.494   2.500   2.535   2.587
  2.613   2.653   2.686   2.702   2.737   2.770   2.816   2.881
  2.925   3.004   3.027   3.069   3.156   3.253   3.367   3.436
  3.444   3.503   3.555   4.456   4.501   4.615   4.629   4.700
  4.759   4.807   4.877   5.138
 --------------------------------------------------------------
 
          Ground-State Mulliken Net Atomic Charges

     Atom                 Charge (a.u.)
  ----------------------------------------
      1 C                     0.309600
      2 O                    -0.616893
      3 O                    -0.587359
      4 C                     0.170381
      5 C                    -0.918280
      6 O                    -0.536994
      7 C                     0.459081
      8 O                    -0.549523
      9 C                    -0.856616
     10 H                     0.191620
     11 H                     0.196176
     12 H                     0.182742
     13 H                     0.190409
     14 H                     0.221440
     15 H                     0.144216
  ----------------------------------------
  Sum of atomic charges =    -2.000000

 -----------------------------------------------------------------
                    Cartesian Multipole Moments
 -----------------------------------------------------------------
    Charge (ESU x 10^10)
                -9.6064
    Dipole Moment (Debye)
         X      -7.3839      Y       5.9246      Z      -5.4751
       Tot      10.9362
    Quadrupole Moments (Debye-Ang)
        XX    -105.8335     XY      -5.7638     YY     -77.2474
        XZ      -6.3258     YZ       7.6428     ZZ     -83.2748
    Octopole Moments (Debye-Ang^2)
       XXX    -124.5862    XXY      11.8549    XYY     -21.8790
       YYY      69.2468    XXZ     -53.2415    XYZ       3.3957
       YYZ     -32.1342    XZZ     -41.9848    YZZ      34.3066
       ZZZ     -61.5967
    Hexadecapole Moments (Debye-Ang^3)
      XXXX   -1235.3253   XXXY     -37.1751   XXYY    -254.3087
      XYYY      27.4809   YYYY    -517.9597   XXXZ     -95.8862
      XXYZ      25.8170   XYYZ     -19.7913   YYYZ      54.0194
      XXZZ    -317.2696   XYZZ       4.2893   YYZZ    -184.4182
      XZZZ    -103.7997   YZZZ      20.3886   ZZZZ    -590.7775
 -----------------------------------------------------------------
 Calculating analytic gradient of the SCF energy
 CPU 0.00 s  wall 0.00 s
 CPU 2.05 s  wall 2.05 s
 Gradient of SCF Energy
            1           2           3           4           5           6
    1  -0.0013263   0.0093531  -0.0021705  -0.0004614   0.0050479  -0.0033579
    2   0.0018193  -0.0025618  -0.0059959  -0.0033035   0.0022881   0.0098018
    3  -0.0321814   0.0213969  -0.0011339  -0.0109760   0.0152235   0.0174286
            7           8           9          10          11          12
    1   0.0082898  -0.0073475  -0.0010107  -0.0026693  -0.0007760  -0.0024580
    2   0.0003601  -0.0076741  -0.0002542   0.0009905   0.0002772  -0.0020937
    3  -0.0108633   0.0093305  -0.0006578   0.0003504   0.0002559   0.0011937
           13          14          15
    1   0.0010711  -0.0020335  -0.0001506
    2   0.0051503   0.0007893   0.0004065
    3  -0.0020308  -0.0041210  -0.0032153
 Max gradient component =       3.218E-02
 RMS gradient           =       8.046E-03
 Gradient time:  CPU 15.90 s  wall 16.03 s
the nuclear gradient is: 
-0.0025064 0.0034380 -0.0608138
0.0176747 -0.0048411 0.0404341
-0.0041017 -0.0113305 -0.0021428
-0.0008719 -0.0062426 -0.0207416
0.0095391 0.0043239 0.0287681
-0.0063455 0.0185226 0.0329352
0.0156653 0.0006805 -0.0205285
-0.0138848 -0.0145019 0.0176321
-0.0019099 -0.0004803 -0.0012431
-0.0050441 0.0018718 0.0006621
-0.0014665 0.0005239 0.0004835
-0.0046449 -0.0039566 0.0022558
0.0020241 0.0097326 -0.0038377
-0.0038428 0.0014915 -0.0077875
-0.0002846 0.0007681 -0.0060760
E1 = -494.9614086 E2 = -494.9614619 and Emax = -494.9614345
Iteration = 5 Curvature = -0.0536296
Curvature, final (in Ha/Bo^2) = -0.0150178
 ----------------------------------------------------------------
             Standard Nuclear Orientation (Angstroms)
    I     Atom           X                Y                Z
 ----------------------------------------------------------------
    1      C       1.8867951141    -0.0499097484     0.5699924764
    2      O       2.4435724160     0.5258055859    -0.3948616391
    3      O       2.3874609258    -0.1405942394     1.7328832701
    4      C       0.4679923235    -0.8186773544     0.5870730353
    5      C      -0.0716044509    -0.7845333527    -1.3996230070
    6      O       0.4884991764    -1.9301036109     1.1844387429
    7      C      -0.8797414130    -0.1608979258     0.5188561995
    8      O      -1.9162967637    -0.7932169300     0.8807304384
    9      C      -1.0800208145     1.3615510817     0.3491155753
   10      H      -0.8173580017     1.7666403018    -0.6345049008
   11      H      -0.4965108499     1.9111022929     1.1025359769
   12      H      -2.1511885323     1.5314099280     0.5364572573
   13      H      -0.5700223779    -1.7465873785    -1.5153195160
   14      H       0.9412786681    -0.7739650773    -1.8126036016
   15      H      -0.6554978852    -0.0067380173    -1.9248538597
 ----------------------------------------------------------------
 Nuclear Repulsion Energy =   444.5970176987 hartrees
 There are       35 alpha and       35 beta electrons
 Requested basis set is 6-31+G(d)
 There are 57 shells and 183 basis functions
 Geometry Optimization Parameters
   NAtoms,    NIC,     NZ,  NCons,   NDum,   NFix, NCnnct, MaxDiis
       15     132       0       0       0       0       0       0


** GEOMETRY OPTIMIZATION IN DELOCALIZED INTERNAL COORDINATES **
   Searching for a Minimum

   Optimization Cycle:   1

                       Coordinates (Angstroms)
     ATOM                X               Y               Z
      1  C         1.8867951141   -0.0499097484    0.5699924764
      2  O         2.4435724160    0.5258055859   -0.3948616391
      3  O         2.3874609258   -0.1405942394    1.7328832701
      4  C         0.4679923235   -0.8186773544    0.5870730353
      5  C        -0.0716044509   -0.7845333527   -1.3996230070
      6  O         0.4884991764   -1.9301036109    1.1844387429
      7  C        -0.8797414130   -0.1608979258    0.5188561995
      8  O        -1.9162967637   -0.7932169300    0.8807304384
      9  C        -1.0800208145    1.3615510817    0.3491155753
     10  H        -0.8173580017    1.7666403018   -0.6345049008
     11  H        -0.4965108499    1.9111022929    1.1025359769
     12  H        -2.1511885323    1.5314099280    0.5364572573
     13  H        -0.5700223779   -1.7465873785   -1.5153195160
     14  H         0.9412786681   -0.7739650773   -1.8126036016
     15  H        -0.6554978852   -0.0067380173   -1.9248538597
   Point Group: c1    Number of degrees of freedom:    39


   Energy is   -494.961461873


 Attempting to Generate Delocalized Internal Coordinates

 39 Hessian modes will be used to form the next step
  Hessian Eigenvalues:
     0.002000    0.002017    0.003429    0.004980    0.023094    0.028328
     0.029096    0.030022    0.035102    0.039909    0.043162    0.045451
     0.059648    0.071543    0.082757    0.084988    0.092718    0.105273
     0.107464    0.116157    0.117312    0.123519    0.150050    0.152984
     0.228676    0.250000    0.250000    0.260243    0.290395    0.315064
     0.325289    0.336144    0.336754    0.343669    0.348522    0.764838
     0.772670    0.789709    0.817940

 Minimum Search - Taking Simple RFO Step
 Searching for Lamda that Minimizes Along All modes
 Value Taken    Lamda =  -0.02118262
 Calculated Step too Large.  Step scaled by  0.573893
 Step Taken.  Stepsize is  0.300000

                             Maximum     Tolerance    Cnvgd?
         Gradient           0.033373      0.000300      NO
         Displacement       0.155682      0.001200      NO
         Energy change     *********      0.000001      NO


 New Cartesian Coordinates Obtained by Inverse Iteration

 Displacement from previous Coordinates is:  0.582313
 ----------------------------------------------------------------
             Standard Nuclear Orientation (Angstroms)
    I     Atom           X                Y                Z
 ----------------------------------------------------------------
    1      C       1.8376317865    -0.0251907970     0.5847410834
    2      O       2.2813200424     0.5878074591    -0.4212629161
    3      O       2.3502563823    -0.0069787402     1.7464324877
    4      C       0.4546149776    -0.8519337202     0.5967653576
    5      C      -0.0734859787    -0.8064575793    -1.4014020777
    6      O       0.5011774374    -1.9990424054     1.1210889149
    7      C      -0.8861521150    -0.1791794711     0.5233990590
    8      O      -1.9458379665    -0.7850858128     0.8444474865
    9      C      -1.0256255239     1.3520617553     0.3658816937
   10      H      -0.7274703615     1.7501174407    -0.6110111813
   11      H      -0.4273020332     1.8682013630     1.1313092192
   12      H      -2.0877802961     1.5767234800     0.5346442946
   13      H      -0.5790335754    -1.7688681714    -1.5205764681
   14      H       0.9470623593    -0.8053957728    -1.7959528150
   15      H      -0.6420176005    -0.0154934723    -1.9181876907
 ----------------------------------------------------------------
 Nuclear Repulsion Energy =   445.7085243262 hartrees
 There are       35 alpha and       35 beta electrons







































Eigenvalues after right structure
 -0.0287352 -0.0000000 -0.0000000 -0.0000000 0.0000000 0.0000000 0.0000518 0.0019254 0.0034155 0.0108720 0.0128663 0.0177023 0.0272074 0.0297763 0.0378401 0.0510897 0.0556185 0.0662589 0.0819390 0.0820727 0.0978568 0.1227151 0.1284105 0.1363388 0.1408132 0.1507073 0.1707381 0.1918977 0.2178661 0.2497990 0.2854216 0.3087267 0.3236950 0.5254852 0.7317136 0.7484824 0.9128622 0.9365853 0.9530572 0.9983372 1.0484662 1.3507475 1.7770043 1.8548161 2.1800459
Archival summary:
1\1\fock\JobtypUnspecified\ProcedureUnspecified\6-31+G*\456(2-,1)\emavera\ThuApr2713:02:002017ThuApr2713:02:002017\0\\#,JobtypUnspecified,ProcedureUnspecified,6-31+G*,\\-2,1\C\O,1,1.26212\C,1,1.50188,2,117.41\O,3,1.26219,1,121.469,2,7.12752,0\C,3,1.54563,1,121.959,2,-158.843,0\H,5,1.0962,3,115.215,1,-70.0329,0\H,5,1.09869,3,105.912,1,169.407,0\H,5,1.10012,3,110.17,1,51.8575,0\C,1,1.61133,2,115.961,3,-157.531,0\O,9,1.25884,1,123.94,2,-133.894,0\O,9,1.2699,1,110.304,2,50.7249,0\C,1,2.06728,2,115.529,3,83.7845,0\H,12,1.09362,1,101.774,2,-20.8663,0\H,12,1.09416,1,96.3322,2,94.3959,0\H,12,1.10269,1,126.904,2,-147.251,0\\\@

 Total job time:  3078.70s(wall), 3043.60s(cpu) 
 Thu Apr 27 13:02:00 2017

        *************************************************************
        *                                                           *
        *  Thank you very much for using Q-Chem.  Have a nice day.  *
        *                                                           *
        *************************************************************


0 sent ACK to 0 
now end server 0 ... 
cleanup process ... done
