15
image #: 1 Energy = -495.00165
C 1.66082   0.06267   0.48360   
O 2.57814   0.09477   -0.38828  
O 1.65476   0.68800   1.59060   
C 0.38556   -0.88799  0.20349   
C 0.07223   -0.85792  -1.35884  
O 0.55538   -2.14256  0.62337   
C -0.84424  -0.13902  0.82639   
O -1.70007  -0.66227  1.53560   
C -1.05110  1.35004   0.46762   
H -0.23722  1.76602   -0.13049  
H -1.12301  1.91946   1.40216   
H -2.00431  1.45095   -0.07683  
H -0.78166  -1.52658  -1.54892  
H 0.96977   -1.25570  -1.84323  
H -0.13499  0.14010   -1.78627  
15
image #: 2 Energy = -494.99375
C 1.71287   0.03582   0.51603   
O 2.60267   0.14285   -0.39656  
O 1.77357   0.55434   1.66263   
C 0.41204   -0.88527  0.27651   
C 0.04041   -0.84260  -1.36543  
O 0.57725   -2.10435  0.78597   
C -0.85877  -0.16492  0.77061   
O -1.74497  -0.69693  1.37970   
C -1.05826  1.34499   0.42479   
H -0.33423  1.78909   -0.26353  
H -1.00093  1.91343   1.36665   
H -2.06411  1.46302   0.01365   
H -0.75184  -1.57569  -1.53866  
H 0.95736   -1.14090  -1.85227  
H -0.27675  0.13032   -1.84308  
15
image #: 3 Energy = -494.98254
C 1.76342   0.01080   0.52875   
O 2.60505   0.21135   -0.40402  
O 1.90125   0.40934   1.72042   
C 0.43137   -0.87986  0.34685   
C 0.00733   -0.82092  -1.37337  
O 0.57709   -2.05761  0.92299   
C -0.85033  -0.16735  0.70054   
O -1.80650  -0.74346  1.25289   
C -1.06121  1.34133   0.39442   
H -0.44399  1.79991   -0.38420  
H -0.86824  1.91066   1.31742   
H -2.11397  1.48026   0.12998   
H -0.71052  -1.62516  -1.53323  
H 0.95297   -1.03107  -1.85881  
H -0.40135  0.10111   -1.88221  
15
image #: 4 Energy = -494.97307
C 1.81764   -0.00495  0.54701   
O 2.57061   0.29816   -0.41862  
O 2.04212   0.24689   1.76604   
C 0.45673   -0.86848  0.41850   
C -0.02680  -0.79966  -1.38556  
O 0.55509   -2.00491  1.01296   
C -0.86776  -0.15769  0.65204   
O -1.85150  -0.77027  1.11826   
C -1.06176  1.34243   0.37632   
H -0.56480  1.79465   -0.49387  
H -0.72920  1.90597   1.25198   
H -2.15280  1.49995   0.26828   
H -0.66440  -1.67920  -1.52954  
H 0.95982   -0.93201  -1.85932  
H -0.50171  0.05278   -1.89216  
15
image #: 5 Energy = -494.96571
C 1.84769   -0.03043  0.56682   
O 2.52367   0.41115   -0.42243  
O 2.20555   0.06384   1.77183   
C 0.46987   -0.83502  0.49522   
C -0.04271  -0.79515  -1.39538  
O 0.52249   -1.97289  1.09878   
C -0.87792  -0.15684  0.58827   
O -1.89122  -0.78651  0.99779   
C -1.07607  1.35132   0.35970   
H -0.69447  1.77957   -0.57745  
H -0.60006  1.90980   1.17866   
H -2.15930  1.51829   0.41210   
H -0.61350  -1.71990  -1.52461  
H 0.95318   -0.84459  -1.84482  
H -0.58710  0.01884   -1.90504  
15
image #: 6 Energy = -494.96143
C 1.88681   -0.04991  0.57000   
O 2.44359   0.52581   -0.39486  
O 2.38747   -0.14059  1.73289   
C 0.46799   -0.81868  0.58708   
C -0.07160  -0.78454  -1.39963  
O 0.48850   -1.93011  1.18444   
C -0.87975  -0.16090  0.51886   
O -1.91631  -0.79322  0.88074   
C -1.08003  1.36156   0.34912   
H -0.81736  1.76665   -0.63451  
H -0.49651  1.91111   1.10254   
H -2.15120  1.53142   0.53646   
H -0.57003  -1.74660  -1.51533  
H 0.94128   -0.77397  -1.81261  
H -0.65550  -0.00674  -1.92486  
15
image #: 7 Energy = -494.96389
C 1.92073   -0.08395  0.60327   
O 2.35077   0.63609   -0.36189  
O 2.56986   -0.35109  1.63860   
C 0.47189   -0.79345  0.68858   
C -0.11781  -0.75948  -1.40031  
O 0.45837   -1.89017  1.27995   
C -0.87356  -0.16434  0.43833   
O -1.93300  -0.79952  0.76851   
C -1.07491  1.36707   0.34146   
H -0.91813  1.76255   -0.67164  
H -0.41968  1.91130   1.03366   
H -2.13182  1.53353   0.62910   
H -0.54351  -1.76360  -1.50038  
H 0.92342   -0.71567  -1.76118  
H -0.70980  -0.02884  -1.94995  
15
image #: 8 Energy = -494.97524
C 1.95346   -0.10670  0.62775   
O 2.23193   0.70437   -0.30417  
O 2.74667   -0.53652  1.52884   
C 0.48870   -0.75686  0.81436   
C -0.18673  -0.73090  -1.39479  
O 0.44288   -1.85838  1.37661   
C -0.84503  -0.18174  0.33617   
O -1.93317  -0.80958  0.64684   
C -1.06347  1.36582   0.32420   
H -0.98512  1.77546   -0.69209  
H -0.35902  1.90836   0.97899   
H -2.09271  1.51917   0.68672   
H -0.54649  -1.76503  -1.47735  
H 0.88015   -0.66126  -1.67950  
H -0.76784  -0.04013  -1.99316  
15
image #: 9 Energy = -494.98969
C 1.99612   -0.13560  0.64727   
O 2.15797   0.71130   -0.28429  
O 2.82999   -0.56374  1.48083   
C 0.51561   -0.75777  0.88084   
C -0.27372  -0.69172  -1.35020  
O 0.45512   -1.83767  1.46279   
C -0.78687  -0.21336  0.21596   
O -1.90909  -0.82904  0.56760   
C -1.03308  1.35906   0.30132   
H -0.96374  1.82270   -0.69385  
H -0.34260  1.88364   0.98673   
H -2.07249  1.48097   0.66171   
H -0.61188  -1.73156  -1.45757  
H 0.80501   -0.64290  -1.59175  
H -0.80557  -0.03635  -2.04615  
15
image #: 10 Energy = -494.98880
C 1.99733   -0.17078  0.61566   
O 2.18752   0.79064   -0.18582  
O 2.85028   -0.79965  1.29416   
C 0.49739   -0.73250  0.91059   
C -0.25610  -0.67228  -1.34806  
O 0.40949   -1.73852  1.60423   
C -0.78861  -0.21137  0.20582   
O -1.90947  -0.83900  0.55000   
C -1.05146  1.35820   0.30620   
H -1.08182  1.79985   -0.70146  
H -0.31159  1.90466   0.91911   
H -2.05992  1.47408   0.74902   
H -0.54226  -1.72593  -1.46714  
H 0.81797   -0.59576  -1.60291  
H -0.80952  -0.05106  -2.06021  
15
image #: 11 Energy = -494.98846
C 1.98518   -0.19993  0.60168   
O 2.23423   0.85597   -0.06105  
O 2.82051   -1.01166  1.07739   
C 0.47992   -0.70333  0.93997   
C -0.23557  -0.65363  -1.34764  
O 0.37250   -1.63675  1.73221   
C -0.79054  -0.21431  0.19824   
O -1.90843  -0.85006  0.53895   
C -1.06299  1.35251   0.30981   
H -1.20982  1.76522   -0.70060  
H -0.27766  1.92802   0.82638   
H -2.02368  1.47048   0.85287   
H -0.45952  -1.72406  -1.47602  
H 0.83118   -0.53469  -1.62161  
H -0.81958  -0.06604  -2.07178  
15
image #: 12 Energy = -494.98748
C 1.96158   -0.22628  0.59139   
O 2.30529   0.89384   0.09727   
O 2.74355   -1.17855  0.85740   
C 0.46322   -0.68170  0.95100   
C -0.21182  -0.63329  -1.35846  
O 0.33961   -1.51661  1.85285   
C -0.79840  -0.22326  0.20247   
O -1.91866  -0.87399  0.54105   
C -1.07406  1.33531   0.30923   
H -1.35382  1.71878   -0.68559  
H -0.24609  1.95521   0.69670   
H -1.94345  1.46895   0.97410   
H -0.35814  -1.71672  -1.48507  
H 0.84870   -0.44784  -1.65507  
H -0.83152  -0.08681  -2.07248  
15
image #: 13 Energy = -494.98578
C 1.93901   -0.25728  0.57928   
O 2.37404   0.89074   0.27426   
O 2.66070   -1.28328  0.67316   
C 0.44233   -0.65858  0.94903   
C -0.16849  -0.61171  -1.36407  
O 0.31134   -1.38221  1.96018   
C -0.83492  -0.25716  0.19466   
O -1.93021  -0.90795  0.54828   
C -1.06357  1.31208   0.29987   
H -1.49733  1.66567   -0.64805  
H -0.22526  1.97940   0.53627   
H -1.81910  1.46700   1.09478   
H -0.25586  -1.69774  -1.49161  
H 0.85086   -0.33291  -1.69136  
H -0.85622  -0.11023  -2.06697  
15
image #: 14 Energy = -494.99847
C 1.93293   -0.30028  0.58755   
O 2.38440   0.87181   0.43110   
O 2.61754   -1.36061  0.52377   
C 0.42842   -0.62102  0.98448   
C -0.18767  -0.58012  -1.36736  
O 0.29466   -1.24204  2.06777   
C -0.80858  -0.27604  0.16160   
O -1.92659  -0.94354  0.50134   
C -1.05665  1.29596   0.28872   
H -1.62597  1.61593   -0.59501  
H -0.19078  1.97022   0.37470   
H -1.67552  1.45670   1.18009   
H -0.17203  -1.67307  -1.49727  
H 0.82630   -0.20646  -1.68377  
H -0.89986  -0.14426  -2.06562  
15
image #: 15 Energy = -495.01019
C 1.92394   -0.34746  0.61220   
O 2.38842   0.83117   0.56619   
O 2.57599   -1.40222  0.40691   
C 0.43417   -0.61112  1.04484   
C -0.19668  -0.54830  -1.37320  
O 0.27092   -1.06560  2.14943   
C -0.79783  -0.28529  0.13537   
O -1.90447  -0.98489  0.43428   
C -1.03830  1.27420   0.27267   
H -1.73053  1.56857   -0.52734  
H -0.16073  1.93809   0.21998   
H -1.52486  1.44443   1.23786   
H -0.08888  -1.63502  -1.50888  
H 0.77155   -0.07286  -1.66143  
H -0.95761  -0.18210  -2.06245  
15
image #: 16 Energy = -495.01845
C 1.93040   -0.39404  0.64859   
O 2.37110   0.79268   0.68080   
O 2.54493   -1.44537  0.31389   
C 0.45122   -0.57506  1.09908   
C -0.22291  -0.51385  -1.37413  
O 0.23358   -0.89129  2.26714   
C -0.75496  -0.30040  0.08713   
O -1.85956  -1.02089  0.33053   
C -1.01564  1.25279   0.25408   
H -1.81290  1.52772   -0.45549  
H -0.12419  1.87343   0.07832   
H -1.38522  1.43056   1.27260   
H -0.00580  -1.57834  -1.52762  
H 0.68173   0.06601   -1.61247  
H -1.03178  -0.22393  -2.06244  
