
Running Job 1 of 1 ts_nbo.qcin
qchem ts_nbo.qcin_53986.0 /tmp/ts_nbo.qcin/ 1
/programs/x86_64/lib/qchem-4.3.2/bin/mpi/mpirun_qchem -machinefile /var/spool/torque/aux//123205.vali -np 1 /programs/x86_64/lib/qchem-4.3.2/exe/qcprog.exe ts_nbo.qcin_53986.0 /tmp/ts_nbo.qcin/

Process 0 of 1 is on bt2600-04.csail.mit.edu - thread support 0
initial socket setup ...start
initial socket setup ...done 
now start server 0 ... 

cmd = ssh thor /programs/x86_64/lib/qchem-4.3.2/bin/get_hostid 126716333 > /tmp/ts_nbo.qcin/lic.dat
                  Welcome to Q-Chem
     A Quantum Leap Into The Future Of Chemistry


 Q-Chem 4.3, Q-Chem, Inc., Pleasanton, CA (2015)

 Y. Shao,  Z. Gan,  E. Epifanovsky,  A. T. B. Gilbert,  M. Wormit,  
 J. Kussmann,  A. W. Lange,  A. Behn,  J. Deng,  X. Feng,  D. Ghosh,  
 M. Goldey,  P. R. Horn,  L. D. Jacobson,  I. Kaliman,  R. Z. Khaliullin,  
 T. Kus,  A. Landau,  J. Liu,  E. I. Proynov,  Y. M. Rhee,  R. M. Richard,  
 M. A. Rohrdanz,  R. P. Steele,  E. J. Sundstrom,  H. L. Woodcock III,  
 P. M. Zimmerman,  D. Zuev,  B. Albrecht,  E. Alguire,  B. Austin,  
 S. A. Baeppler,  G. J. O. Beran,  Y. A. Bernard,  E. Berquist,  
 K. Brandhorst,  K. B. Bravaya,  S. T. Brown,  D. Casanova,  C.-M. Chang,  
 Y. Chen,  S. H. Chien,  K. D. Closser,  D. L. Crittenden,  M. Diedenhofen,  
 R. A. DiStasio Jr.,  H. Do,  A. D. Dutoi,  R. G. Edgar,  P.-T. Fang,  
 S. Fatehi,  Q. Feng,  L. Fusti-Molnar,  A. Ghysels,  
 A. Golubeva-Zadorozhnaya,  J. Gomes,  A. Gunina,  M. W. D. Hanson-Heine,  
 P. H. P. Harbach,  A. W. Hauser,  E. G. Hohenstein,  Z. C. Holden,  K. Hui,  
 T.-C. Jagau,  H. Ji,  B. Kaduk,  K. Khistyaev,  Jaehoon Kim,  Jihan Kim,  
 R. A. King,  P. Klunzinger,  D. Kosenkov,  T. Kowalczyk,  C. M. Krauter,  
 K. U. Lao,  A. Laurent,  K. V. Lawler,  S. Lehtola,  S. V. Levchenko,  
 C. Y. Lin,  Y.-S. Lin,  F. Liu,  E. Livshits,  R. C. Lochan,  A. Luenser,  
 P. Manohar,  S. F. Manzer,  S.-P. Mao,  N. Mardirossian,  A. V. Marenich,  
 L. A. Martinez-Martinez,  S. A. Maurer,  N. J. Mayhall,  K. Nanda,  
 C. M. Oana,  R. Olivares-Amaya,  D. P. O'Neill,  J. A. Parkhill,  
 T. M. Perrine,  R. Peverati,  P. A. Pieniazek,  F. Plasser,  A. Prociuk,  
 D. R. Rehn,  E. Rosta,  N. J. Russ,  N. Sergueev,  S. M. Sharada,  
 S. Sharma,  D. W. Small,  A. Sodt,  T. Stauch,  T. Stein,  D. Stuck,  
 Y.-C. Su,  A. J. W. Thom,  T. Tsuchimochi,  L. Vogt,  O. Vydrov,  T. Wang,  
 M. A. Watson,  J. Wenzel,  A. White,  C. F. Williams,  V. Vanovschi,  
 S. Yeganeh,  S. R. Yost,  Z.-Q. You,  I. Y. Zhang,  X. Zhang,  Y. Zhao,  
 B. R. Brooks,  G. K. L. Chan,  D. M. Chipman,  C. J. Cramer,  
 W. A. Goddard III,  M. S. Gordon,  W. J. Hehre,  A. Klamt,  
 H. F. Schaefer III,  M. W. Schmidt,  C. D. Sherrill,  D. G. Truhlar,  
 A. Warshel,  X. Xu,  A. Aspuru-Guzik,  R. Baer,  A. T. Bell,  N. A. Besley,  
 J.-D. Chai,  A. Dreuw,  B. D. Dunietz,  T. R. Furlani,  S. R. Gwaltney,  
 C.-P. Hsu,  Y. Jung,  J. Kong,  D. S. Lambrecht,  W. Liang,  C. Ochsenfeld,  
 V. A. Rassolov,  L. V. Slipchenko,  J. E. Subotnik,  T. Van Voorhis,  
 J. M. Herbert,  A. I. Krylov,  P. M. W. Gill,  M. Head-Gordon

 Contributors to earlier versions of Q-Chem not listed above: 
 R. D. Adamson,  J. Baker,  E. F. C. Byrd,  A. K. Chakraborty,  C.-L. Cheng,  
 H. Dachsel,  R. J. Doerksen,  G. Hawkins,  A. Heyden,  S. Hirata,  
 G. Kedziora,  F. J. Keil,  C. Kelley,  P. P. Korambath,  W. Kurlancheek,  
 A. M. Lee,  M. S. Lee,  D. Liotard,  I. Lotan,  P. E. Maslen,  N. Nair,  
 D. Neuhauser,  R. Olson,  B. Peters,  J. Ritchie,  N. E. Schultz,  
 N. Shenvi,  A. C. Simmonett,  K. S. Thanthiriwatte,  Q. Wu,  W. Zhang

 Please cite Q-Chem as follows:
 Y. Shao et al., Mol. Phys. 113, 184-215 (2015)
 DOI: 10.1080/00268976.2014.952696

 Q-Chem 4.3.0 for Intel X86 Linux

 Parts of Q-Chem use Armadillo 5.200.1 (Boston Tea Smuggler).
 http://arma.sourceforge.net/

 Q-Chem begins on Wed Jun 14 11:12:02 2017  

Host: 
0

     Scratch files written to /tmp/ts_nbo.qcin//
 Oct1215 13750_ 19228  19214 4150   
 Parallel job on  1  processors
Processing $rem in /programs/x86_64/lib/qchem-4.3.2/config/preferences.
 MEM_TOTAL  2000 

Checking the input file for inconsistencies... 	...done.

--------------------------------------------------------------
User input:
--------------------------------------------------------------
$comment
TS Frame 1020 converged, trying to find the RPATH now
$end

$molecule
-2 1
C
O  1 1.266166
C  1 1.501701 2 121.942692
O  3 1.253523 1 124.466424 2 2.481059 0
C  3 1.535840 1 118.144822 2 -171.911579 0
H  5 1.092857 3 113.598303 1 -18.094820 0
H  5 1.099114 3 108.067065 1 101.564700 0
H  5 1.100575 3 108.683140 1 -140.953714 0
C  1 1.580999 2 117.021145 3 -157.215339 0
O  9 1.262592 1 119.509853 2 -76.735683 0
O  9 1.270833 1 113.491741 2 99.649612 0
C  1 2.078293 2 107.888271 3 84.219046 0
H  12 1.092352 1 98.300440 2 -32.861421 0
H  12 1.092402 1 91.513803 2 81.657851 0
H  12 1.100580 1 126.448085 2 -159.194350 0
$end

$rem
jobtype sp
basis 6-31+G(d)
exchange b3lyp
NBO TRUE
$end

$nbo
nbosum
$end

--------------------------------------------------------------
 ----------------------------------------------------------------
             Standard Nuclear Orientation (Angstroms)
    I     Atom           X                Y                Z
 ----------------------------------------------------------------
    1      C       0.0797945966    -0.4909783694    -0.4223075321
    2      O       0.1313474063    -1.4572744400    -1.2388799730
    3      C      -1.1864532086     0.2798716911    -0.1824897396
    4      O      -2.2889245969     0.0175537506    -0.7182751888
    5      C      -1.1098133330     1.5491098778     0.6788843141
    6      H      -0.2072507241     1.6077002662     1.2923045011
    7      H      -1.1176993056     2.4184439439     0.0063906875
    8      H      -2.0042769838     1.5956880274     1.3184393032
    9      C       1.4423313860     0.2349101035    -0.0815183592
   10      O       2.2586348364    -0.3142909509     0.7097877997
   11      O       1.6143739870     1.3173156007    -0.7248038300
   12      C      -0.6241447946    -1.2240138460     1.3905438455
   13      H      -1.2884339969    -1.9983756046     1.0002662336
   14      H       0.3695936068    -1.5869677565     1.6627396904
   15      H      -1.0856735372    -0.6363173016     2.1985539493
 ----------------------------------------------------------------
 Molecular Point Group                 C1    NOp =  1
 Largest Abelian Subgroup              C1    NOp =  1
 Nuclear Repulsion Energy =   448.3253641179 hartrees
 There are       35 alpha and       35 beta electrons
 Requested basis set is 6-31+G(d)
 There are 57 shells and 183 basis functions

 Total QAlloc Memory Limit   2000 MB
 Mega-Array Size        61 MB
 MEM_STATIC part        62 MB

                       Distance Matrix (Angstroms)
             C (  1)   O (  2)   C (  3)   O (  4)   C (  5)   H (  6)
   O (  2)  1.266166
   C (  3)  1.501701  2.422857
   O (  4)  2.440703  2.881643  1.253523
   C (  5)  2.605715  3.775797  1.535840  2.384957
   H (  6)  2.725205  3.989438  2.212913  3.302175  1.092857
   H (  7)  3.175297  4.258170  2.147998  2.767884  1.099114  1.771947
   H (  8)  3.424577  4.518999  2.157081  2.592246  1.100575  1.797256
   C (  9)  1.580999  2.433445  2.631107  3.791434  2.969642  2.548149
   O ( 10)  2.461748  3.103074  3.608022  4.778052  3.849631  3.180246
   O ( 11)  2.390892  3.187788  3.035626  4.114020  3.073315  2.733380
   C ( 12)  2.078293  2.745733  2.247732  2.959747  2.903885  2.863923
   H ( 13)  2.483548  2.705983  2.568993  2.831667  3.566489  3.775980
   H ( 14)  2.373310  2.914271  3.051433  3.912984  3.604386  3.267396
   H ( 15)  2.871995  3.737788  2.553219  3.222305  2.661967  2.574593
             H (  7)   H (  8)   C (  9)   O ( 10)   O ( 11)   C ( 12)
   H (  8)  1.784494
   C (  9)  3.365903  3.961150
   O ( 10)  4.400255  4.710721  1.262592
   O ( 11)  3.035021  4.164969  1.270833  2.266112
   C ( 12)  3.927719  3.140172  2.926730  3.098620  3.992996
   H ( 13)  4.530478  3.678445  3.689838  3.937285  4.732438  1.092352
   H ( 14)  4.582451  3.985361  2.740883  2.469069  3.960392  1.092402
   H ( 15)  3.760076  2.569101  3.514054  3.674850  4.433166  1.100580
             H ( 13)   H ( 14)
   H ( 14)  1.832262
   H ( 15)  1.825434  1.818966
 
 A cutoff of  1.0D-08 yielded   1480 shell pairs
 There are     16035 function pairs
 
 -------------------------------------------------------
 OpenMP Integral Computing Module                       
 Release: version 1.0, May 2013, Q-Chem Inc. Pittsburgh 
 -------------------------------------------------------
 Integral Job Info:
 Integral job number is                      11
 Integral operator is                         1
 short-range coefficients                     0
 long-range coefficients              100000000
 Omega coefficients                           0
 if combine SR and LR in K                    0
 Integral screening is                        0
 Integral computing path is                   2
 max size of driver memory is            800000
 size of driver memory is                593474
 size of scratch memory is              2260544
 max col of scratch BK array               1296
 max len of scratch array in speh3          155
 max len of scratch index in speh4           18
 max int batch size is                      520
 min int batch size is                       52
 fixed nKL is                                52
 max L of basis functions is                  2
 order of int derivative is                   0
 number of shells is                         57
 number of basis is                         183
 number of cartesian basis is               183
 number of contracted shell pairs          1480
 number of primitive shell pairs           4902
 maxK2 (contraction) of shell pair           36
 max number of K2 of shell pair               1
 max number of CS2 of shell pair            180
 max number of PS2 of shell pair           1080
 mem total for path MDJ                   43256
 -------------------------------------------------------
 Smallest overlap matrix eigenvalue = 1.90E-05

 Q-Chem warning in module /home/scratch/svnadmin/13750_zgan/qchem/stvman/mkSTV.C, line 251:

 Overlap eigenvalue is smaller than square root of threshold


 Scale SEOQF with 1.000000e-01/1.000000e-01/1.000000e-01

 Standard Electronic Orientation quadrupole field applied
 Nucleus-field energy     =     0.0000000049 hartrees
 Guess from superposition of atomic densities
 Warning:  Energy on first SCF cycle will be non-variational
 A restricted hybrid HF-DFT SCF calculation will be
 performed using Pulay DIIS extrapolation
 Exchange:     0.2000 Hartree-Fock + 0.0800 Slater + 0.7200 B88
 Correlation:  0.1900 VWN1RPA + 0.8100 LYP
 Using SG-1 standard quadrature grid
 SCF converges when DIIS error is below 1.0E-05
 CPU 0.00 s  wall 0.00 s
 Inaccurate integrated density:
   Number of electrons =    70
   Numerical integral  =    68.000657886444
   Relative error      =    -2.8562030194 %
 CPU 5.56 s  wall 6.26 s
 ---------------------------------------
  Cycle       Energy         DIIS Error
 ---------------------------------------
    1    -496.0858609106      4.81E-02
 CPU 0.00 s  wall 0.00 s
 CPU 6.00 s  wall 7.29 s
    2    -494.5812649348      1.04E-02
 CPU 0.00 s  wall 0.00 s
 CPU 5.98 s  wall 6.99 s
    3    -491.6330549554      2.55E-02
 CPU 0.00 s  wall 0.00 s
 CPU 5.96 s  wall 6.97 s
    4    -494.7229399946      7.94E-03
 CPU 0.00 s  wall 0.00 s
 CPU 5.88 s  wall 6.82 s
    5    -494.9770948319      1.17E-03
 CPU 0.00 s  wall 0.00 s
 CPU 5.79 s  wall 6.23 s
    6    -494.9829317758      8.81E-04
 CPU 0.00 s  wall 0.00 s
 CPU 5.66 s  wall 5.82 s
    7    -494.9858076350      3.69E-04
 CPU 0.00 s  wall 0.00 s
 CPU 5.60 s  wall 6.20 s
    8    -494.9862380011      1.98E-04
 CPU 0.00 s  wall 0.00 s
 CPU 5.46 s  wall 6.26 s
    9    -494.9863742218      4.11E-05
 CPU 0.00 s  wall 0.00 s
 CPU 5.15 s  wall 6.23 s
   10    -494.9863785957      2.08E-05
 CPU 0.00 s  wall 0.00 s
 CPU 4.84 s  wall 5.00 s
   11    -494.9863797361      6.07E-06 Convergence criterion met
 ---------------------------------------
 SCF time:  CPU 145.61 s  wall 174.89 s
 SCF   energy in the final basis set = -494.9863797361
 Total energy in the final basis set = -494.9863797361
 
 --------------------------------------------------------------
 
                    Orbital Energies (a.u.)
 --------------------------------------------------------------
 
 Alpha MOs
 -- Occupied --
-18.821 -18.789 -18.788 -18.786  -9.967  -9.963  -9.943  -9.911
 -9.881  -0.716  -0.707  -0.663  -0.622  -0.461  -0.388  -0.336
 -0.242  -0.180  -0.157  -0.144  -0.136  -0.113  -0.108  -0.098
 -0.094  -0.083  -0.067  -0.058  -0.009   0.031   0.044   0.058
  0.075   0.104   0.111
 -- Virtual --
  0.225   0.243   0.266   0.277   0.279   0.299   0.302   0.308
  0.310   0.327   0.331   0.340   0.341   0.350   0.353   0.364
  0.373   0.384   0.392   0.399   0.407   0.433   0.465   0.483
  0.494   0.501   0.516   0.527   0.532   0.549   0.552   0.556
  0.564   0.571   0.579   0.591   0.595   0.598   0.612   0.620
  0.627   0.632   0.643   0.655   0.666   0.689   0.693   0.733
  0.743   0.792   0.840   0.845   0.943   0.965   0.995   1.010
  1.025   1.064   1.087   1.102   1.118   1.134   1.159   1.175
  1.212   1.225   1.255   1.286   1.296   1.315   1.337   1.371
  1.419   1.446   1.476   1.482   1.524   1.563   1.599   1.606
  1.613   1.634   1.640   1.658   1.668   1.680   1.685   1.718
  1.740   1.756   1.775   1.817   1.879   1.901   1.905   1.941
  1.976   1.997   2.032   2.062   2.093   2.097   2.144   2.164
  2.172   2.215   2.239   2.250   2.265   2.290   2.313   2.344
  2.365   2.381   2.422   2.439   2.470   2.532   2.566   2.584
  2.601   2.615   2.656   2.699   2.709   2.767   2.832   2.910
  2.970   2.998   3.046   3.070   3.201   3.272   3.408   3.417
  3.432   3.510   3.595   4.481   4.529   4.593   4.682   4.710
  4.774   4.848   4.938   5.116
 --------------------------------------------------------------
 
          Ground-State Mulliken Net Atomic Charges

     Atom                 Charge (a.u.)
  ----------------------------------------
      1 C                     0.260783
      2 O                    -0.586809
      3 C                     0.311744
      4 O                    -0.557973
      5 C                    -0.770713
      6 H                     0.225175
      7 H                     0.192559
      8 H                     0.169514
      9 C                     0.319694
     10 O                    -0.612934
     11 O                    -0.605643
     12 C                    -0.929043
     13 H                     0.200323
     14 H                     0.233231
     15 H                     0.150093
  ----------------------------------------
  Sum of atomic charges =    -2.000000

 -----------------------------------------------------------------
                    Cartesian Multipole Moments
 -----------------------------------------------------------------
    Charge (ESU x 10^10)
                -9.6064
    Dipole Moment (Debye)
         X      -3.0502      Y       2.5844      Z       2.2664
       Tot       4.5956
    Quadrupole Moments (Debye-Ang)
        XX    -100.2787     XY      -5.0604     YY     -78.8415
        XZ      -3.2602     YZ       2.0565     ZZ     -76.9266
    Octopole Moments (Debye-Ang^2)
       XXX      -5.6540    XXY      -7.5167    XYY      -4.5861
       YYY      10.1842    XXZ      -2.9614    XYZ       4.0670
       YYZ      -2.7682    XZZ       5.7065    YZZ      18.4389
       ZZZ     -21.7021
    Hexadecapole Moments (Debye-Ang^3)
      XXXX   -1056.2632   XXXY     -11.2368   XXYY    -253.0802
      XYYY     -16.0667   YYYY    -564.1167   XXXZ     -34.4862
      XXYZ      19.9634   XYYZ      26.3068   YYYZ      19.3490
      XXZZ    -234.0309   XYZZ     -13.9069   YYZZ    -193.1792
      XZZZ      26.9889   YZZZ      34.8982   ZZZZ    -448.5675
 -----------------------------------------------------------------

 Begin NBO analysis for the ground state 


 *********************************** NBO 5.0 ***********************************
             N A T U R A L   A T O M I C   O R B I T A L   A N D
          N A T U R A L   B O N D   O R B I T A L   A N A L Y S I S
 *******************************************************************************
  (c) Copyright 1996-2002 Board of Regents of the University of Wisconsin System
      on behalf of the Theoretical Chemistry Institute.  All Rights Reserved.

          Cite this program as:

          NBO 5.0.  E. D. Glendening, J. K. Badenhoop, A. E. Reed,
          J. E. Carpenter, J. A. Bohmann, C. M. Morales, and F. Weinhold
          (Theoretical Chemistry Institute, University of Wisconsin,
          Madison, WI, 2001); http://www.chem.wisc.edu/~nbo5

       /NBOSUM / : Print summary of the NBO analysis
  This is a closed-shell NBO calculation

 Job title: Starting NBO analysis.                                          

 Storage needed:      168297 in NPA,      134749 in NBO (     7717920 available)


 NATURAL POPULATIONS:  Natural atomic orbital occupancies 
                                                          
  NAO Atom No lang   Type(AO)    Occupancy      Energy    
 ---------------------------------------------------------
   1    C  1  s      Cor( 1s)     1.99891      -9.82285
   2    C  1  s      Val( 2s)     0.93186       0.11179
   3    C  1  s      Ryd( 4s)     0.01029       1.82147
   4    C  1  s      Ryd( 5s)     0.00057       3.11546
   5    C  1  s      Ryd( 3s)     0.00011       1.21884
   6    C  1  px     Val( 2p)     1.04992       0.24293
   7    C  1  px     Ryd( 4p)     0.00442       1.19074
   8    C  1  px     Ryd( 3p)     0.00071       0.71619
   9    C  1  py     Val( 2p)     0.86609       0.26550
  10    C  1  py     Ryd( 4p)     0.01278       1.15536
  11    C  1  py     Ryd( 3p)     0.00090       0.66667
  12    C  1  pz     Val( 2p)     0.80647       0.25015
  13    C  1  pz     Ryd( 4p)     0.01061       1.16387
  14    C  1  pz     Ryd( 3p)     0.00095       0.70583
  15    C  1  dxy    Ryd( 3d)     0.00258       2.64951
  16    C  1  dxz    Ryd( 3d)     0.00174       2.40625
  17    C  1  dyz    Ryd( 3d)     0.00094       2.69352
  18    C  1  dx2y2  Ryd( 3d)     0.00129       2.58068
  19    C  1  dz2    Ryd( 3d)     0.00233       2.52413
 
  20    O  2  s      Cor( 1s)     1.99978     -18.52247
  21    O  2  s      Val( 2s)     1.70229      -0.54682
  22    O  2  s      Ryd( 3s)     0.00134       1.34012
  23    O  2  s      Ryd( 4s)     0.00016       2.35754
  24    O  2  s      Ryd( 5s)     0.00006       3.94424
  25    O  2  px     Val( 2p)     1.86803       0.08812
  26    O  2  px     Ryd( 3p)     0.00423       0.92632
  27    O  2  px     Ryd( 4p)     0.00013       1.45206
  28    O  2  py     Val( 2p)     1.59215       0.06342
  29    O  2  py     Ryd( 3p)     0.00182       1.01592
  30    O  2  py     Ryd( 4p)     0.00015       1.42665
  31    O  2  pz     Val( 2p)     1.58583       0.07344
  32    O  2  pz     Ryd( 3p)     0.00172       1.00180
  33    O  2  pz     Ryd( 4p)     0.00018       1.41498
  34    O  2  dxy    Ryd( 3d)     0.00151       2.34542
  35    O  2  dxz    Ryd( 3d)     0.00117       2.33484
  36    O  2  dyz    Ryd( 3d)     0.00300       2.76127
  37    O  2  dx2y2  Ryd( 3d)     0.00179       2.44203
  38    O  2  dz2    Ryd( 3d)     0.00217       2.34810
 
  39    C  3  s      Cor( 1s)     1.99913      -9.83974
  40    C  3  s      Val( 2s)     0.89024       0.10928
  41    C  3  s      Ryd( 3s)     0.00793       1.48580
  42    C  3  s      Ryd( 4s)     0.00100       2.06341
  43    C  3  s      Ryd( 5s)     0.00010       3.44997
  44    C  3  px     Val( 2p)     0.89551       0.27481
  45    C  3  px     Ryd( 4p)     0.01550       1.05518
  46    C  3  px     Ryd( 3p)     0.00147       0.70774
  47    C  3  py     Val( 2p)     0.89816       0.22631
  48    C  3  py     Ryd( 4p)     0.00666       1.14890
  49    C  3  py     Ryd( 3p)     0.00150       0.61401
  50    C  3  pz     Val( 2p)     0.83324       0.21957
  51    C  3  pz     Ryd( 4p)     0.00639       1.04691
  52    C  3  pz     Ryd( 3p)     0.00109       0.61350
  53    C  3  dxy    Ryd( 3d)     0.00212       2.60062
  54    C  3  dxz    Ryd( 3d)     0.00175       2.54582
  55    C  3  dyz    Ryd( 3d)     0.00131       2.50835
  56    C  3  dx2y2  Ryd( 3d)     0.00189       2.65116
  57    C  3  dz2    Ryd( 3d)     0.00122       2.40539
 
  58    O  4  s      Cor( 1s)     1.99978     -18.55382
  59    O  4  s      Val( 2s)     1.69958      -0.58002
  60    O  4  s      Ryd( 3s)     0.00072       1.43164
  61    O  4  s      Ryd( 4s)     0.00018       2.78033
  62    O  4  s      Ryd( 5s)     0.00005       3.37468
  63    O  4  px     Val( 2p)     1.63222       0.02033
  64    O  4  px     Ryd( 3p)     0.00229       0.98119
  65    O  4  px     Ryd( 4p)     0.00016       1.49088
  66    O  4  py     Val( 2p)     1.74914       0.05533
  67    O  4  py     Ryd( 3p)     0.00371       0.87279
  68    O  4  py     Ryd( 4p)     0.00015       1.39710
  69    O  4  pz     Val( 2p)     1.63593       0.05067
  70    O  4  pz     Ryd( 3p)     0.00281       0.87685
  71    O  4  pz     Ryd( 4p)     0.00019       1.38393
  72    O  4  dxy    Ryd( 3d)     0.00238       2.40063
  73    O  4  dxz    Ryd( 3d)     0.00289       2.54666
  74    O  4  dyz    Ryd( 3d)     0.00079       2.25733
  75    O  4  dx2y2  Ryd( 3d)     0.00246       2.53426
  76    O  4  dz2    Ryd( 3d)     0.00165       2.28957
 
  77    C  5  s      Cor( 1s)     1.99938      -9.77827
  78    C  5  s      Val( 2s)     1.12562       0.00138
  79    C  5  s      Ryd( 3s)     0.00191       1.13195
  80    C  5  s      Ryd( 4s)     0.00057       1.78242
  81    C  5  s      Ryd( 5s)     0.00002       3.91275
  82    C  5  px     Val( 2p)     1.23533       0.18930
  83    C  5  px     Ryd( 3p)     0.00391       0.64552
  84    C  5  px     Ryd( 4p)     0.00055       0.80841
  85    C  5  py     Val( 2p)     1.16213       0.17975
  86    C  5  py     Ryd( 3p)     0.00208       0.57087
  87    C  5  py     Ryd( 4p)     0.00046       0.75951
  88    C  5  pz     Val( 2p)     1.19879       0.18284
  89    C  5  pz     Ryd( 3p)     0.00153       0.62645
  90    C  5  pz     Ryd( 4p)     0.00131       0.75439
  91    C  5  dxy    Ryd( 3d)     0.00016       2.18170
  92    C  5  dxz    Ryd( 3d)     0.00156       2.47124
  93    C  5  dyz    Ryd( 3d)     0.00125       2.48765
  94    C  5  dx2y2  Ryd( 3d)     0.00140       2.48235
  95    C  5  dz2    Ryd( 3d)     0.00015       2.07451
 
  96    H  6  s      Val( 1s)     0.75744       0.36050
  97    H  6  s      Ryd( 2s)     0.00116       1.09376
 
  98    H  7  s      Val( 1s)     0.76835       0.33883
  99    H  7  s      Ryd( 2s)     0.00124       1.03485
 
 100    H  8  s      Val( 1s)     0.79702       0.31981
 101    H  8  s      Ryd( 2s)     0.00305       1.02758
 
 102    C  9  s      Cor( 1s)     1.99940      -9.84771
 103    C  9  s      Val( 2s)     0.79933       0.18302
 104    C  9  s      Ryd( 3s)     0.01289       1.15930
 105    C  9  s      Ryd( 4s)     0.00212       1.90297
 106    C  9  s      Ryd( 5s)     0.00025       3.16508
 107    C  9  px     Val( 2p)     0.87634       0.29382
 108    C  9  px     Ryd( 4p)     0.01107       1.08725
 109    C  9  px     Ryd( 3p)     0.00199       0.75379
 110    C  9  py     Val( 2p)     0.76944       0.31002
 111    C  9  py     Ryd( 4p)     0.01486       1.07993
 112    C  9  py     Ryd( 3p)     0.00082       0.58740
 113    C  9  pz     Val( 2p)     0.75564       0.28180
 114    C  9  pz     Ryd( 4p)     0.01059       1.01934
 115    C  9  pz     Ryd( 3p)     0.00029       0.54044
 116    C  9  dxy    Ryd( 3d)     0.00309       2.67409
 117    C  9  dxz    Ryd( 3d)     0.00164       2.61474
 118    C  9  dyz    Ryd( 3d)     0.00207       2.78616
 119    C  9  dx2y2  Ryd( 3d)     0.00284       2.66428
 120    C  9  dz2    Ryd( 3d)     0.00299       2.52949
 
 121    O 10  s      Cor( 1s)     1.99979     -18.53972
 122    O 10  s      Val( 2s)     1.72718      -0.55349
 123    O 10  s      Ryd( 3s)     0.00238       0.87777
 124    O 10  s      Ryd( 4s)     0.00031       2.43429
 125    O 10  s      Ryd( 5s)     0.00007       4.10785
 126    O 10  px     Val( 2p)     1.70866       0.06685
 127    O 10  px     Ryd( 3p)     0.00305       0.82058
 128    O 10  px     Ryd( 4p)     0.00014       1.62944
 129    O 10  py     Val( 2p)     1.75165       0.07732
 130    O 10  py     Ryd( 3p)     0.00341       0.74799
 131    O 10  py     Ryd( 4p)     0.00012       1.56386
 132    O 10  pz     Val( 2p)     1.60037       0.07042
 133    O 10  pz     Ryd( 3p)     0.00179       0.77457
 134    O 10  pz     Ryd( 4p)     0.00014       1.55994
 135    O 10  dxy    Ryd( 3d)     0.00206       2.41985
 136    O 10  dxz    Ryd( 3d)     0.00247       2.58468
 137    O 10  dyz    Ryd( 3d)     0.00161       2.45164
 138    O 10  dx2y2  Ryd( 3d)     0.00175       2.37998
 139    O 10  dz2    Ryd( 3d)     0.00211       2.32895
 
 140    O 11  s      Cor( 1s)     1.99980     -18.54330
 141    O 11  s      Val( 2s)     1.73310      -0.55715
 142    O 11  s      Ryd( 3s)     0.00196       0.97969
 143    O 11  s      Ryd( 4s)     0.00034       2.39846
 144    O 11  s      Ryd( 5s)     0.00006       4.07014
 145    O 11  px     Val( 2p)     1.83863       0.07994
 146    O 11  px     Ryd( 3p)     0.00481       0.76696
 147    O 11  px     Ryd( 4p)     0.00012       1.57520
 148    O 11  py     Val( 2p)     1.58106       0.05642
 149    O 11  py     Ryd( 3p)     0.00150       0.80657
 150    O 11  py     Ryd( 4p)     0.00017       1.63584
 151    O 11  pz     Val( 2p)     1.64724       0.07384
 152    O 11  pz     Ryd( 3p)     0.00192       0.74278
 153    O 11  pz     Ryd( 4p)     0.00012       1.53609
 154    O 11  dxy    Ryd( 3d)     0.00202       2.40993
 155    O 11  dxz    Ryd( 3d)     0.00087       2.27168
 156    O 11  dyz    Ryd( 3d)     0.00284       2.65646
 157    O 11  dx2y2  Ryd( 3d)     0.00238       2.49038
 158    O 11  dz2    Ryd( 3d)     0.00168       2.31762
 
 159    C 12  s      Cor( 1s)     1.99946      -9.77203
 160    C 12  s      Val( 2s)     1.23704      -0.01585
 161    C 12  s      Ryd( 3s)     0.01758       0.99576
 162    C 12  s      Ryd( 4s)     0.00066       1.60223
 163    C 12  s      Ryd( 5s)     0.00003       3.44952
 164    C 12  px     Val( 2p)     1.23203       0.22530
 165    C 12  px     Ryd( 3p)     0.00422       0.62774
 166    C 12  px     Ryd( 4p)     0.00027       0.82585
 167    C 12  py     Val( 2p)     1.20900       0.20406
 168    C 12  py     Ryd( 3p)     0.01175       0.68690
 169    C 12  py     Ryd( 4p)     0.00048       0.84971
 170    C 12  pz     Val( 2p)     1.15654       0.20848
 171    C 12  pz     Ryd( 3p)     0.01082       0.72796
 172    C 12  pz     Ryd( 4p)     0.00077       0.93356
 173    C 12  dxy    Ryd( 3d)     0.00134       2.43129
 174    C 12  dxz    Ryd( 3d)     0.00082       2.31414
 175    C 12  dyz    Ryd( 3d)     0.00087       2.37078
 176    C 12  dx2y2  Ryd( 3d)     0.00041       2.26330
 177    C 12  dz2    Ryd( 3d)     0.00065       2.26196
 
 178    H 13  s      Val( 1s)     0.78902       0.37655
 179    H 13  s      Ryd( 2s)     0.00194       1.05300
 
 180    H 14  s      Val( 1s)     0.76001       0.39998
 181    H 14  s      Ryd( 2s)     0.00170       1.08600
 
 182    H 15  s      Val( 1s)     0.82283       0.34242
 183    H 15  s      Ryd( 2s)     0.00179       1.07506
 
   1 low occupancy (<1.9990e) core orbital  found on  C  1
 
     Population inversion found on atom  C  1
     Population inversion found on atom  C  3
     Population inversion found on atom  C  9


 Summary of Natural Population Analysis:

                                     Natural Population
             Natural    ---------------------------------------------
  Atom No    Charge        Core      Valence    Rydberg      Total
 --------------------------------------------------------------------
    C  1    0.29652      1.99891     3.65434    0.05023     5.70348
    O  2   -0.76751      1.99978     6.74830    0.01943     8.76751
    C  3    0.43380      1.99913     3.51714    0.04993     5.56620
    O  4   -0.73707      1.99978     6.71687    0.02043     8.73707
    C  5   -0.73812      1.99938     4.72188    0.01685     6.73812
    H  6    0.24140      0.00000     0.75744    0.00116     0.75860
    H  7    0.23041      0.00000     0.76835    0.00124     0.76959
    H  8    0.19993      0.00000     0.79702    0.00305     0.80007
    C  9    0.73234      1.99940     3.20075    0.06751     5.26766
    O 10   -0.80906      1.99979     6.78787    0.02141     8.80906
    O 11   -0.82061      1.99980     6.80003    0.02078     8.82061
    C 12   -0.88474      1.99946     4.83461    0.05067     6.88474
    H 13    0.20904      0.00000     0.78902    0.00194     0.79096
    H 14    0.23828      0.00000     0.76001    0.00170     0.76172
    H 15    0.17538      0.00000     0.82283    0.00179     0.82462
 ====================================================================
 * Total * -2.00000     17.99544    51.67646    0.32811    70.00000

                                 Natural Population      
 --------------------------------------------------------
   Core                      17.99544 ( 99.9746% of  18)
   Valence                   51.67646 ( 99.3778% of  52)
   Natural Minimal Basis     69.67189 ( 99.5313% of  70)
   Natural Rydberg Basis      0.32811 (  0.4687% of  70)
 --------------------------------------------------------

    Atom No         Natural Electron Configuration
 ----------------------------------------------------------------------------
      C  1      [core]2s( 0.93)2p( 2.72)4s( 0.01)3d( 0.01)4p( 0.03)
      O  2      [core]2s( 1.70)2p( 5.05)3p( 0.01)3d( 0.01)
      C  3      [core]2s( 0.89)2p( 2.63)3s( 0.01)3d( 0.01)4p( 0.03)
      O  4      [core]2s( 1.70)2p( 5.02)3p( 0.01)3d( 0.01)
      C  5      [core]2s( 1.13)2p( 3.60)3p( 0.01)
      H  6            1s( 0.76)
      H  7            1s( 0.77)
      H  8            1s( 0.80)
      C  9      [core]2s( 0.80)2p( 2.40)3s( 0.01)3d( 0.01)4p( 0.04)
      O 10      [core]2s( 1.73)2p( 5.06)3p( 0.01)3d( 0.01)
      O 11      [core]2s( 1.73)2p( 5.07)3p( 0.01)3d( 0.01)
      C 12      [core]2s( 1.24)2p( 3.60)3s( 0.02)3p( 0.03)
      H 13            1s( 0.79)
      H 14            1s( 0.76)
      H 15            1s( 0.82)


 NATURAL BOND ORBITAL ANALYSIS:

                       Occupancies       Lewis Structure    Low   High
           Occ.    -------------------  -----------------   occ   occ
  Cycle   Thresh.   Lewis   Non-Lewis     CR  BD  3C  LP    (L)   (NL)   Dev
 =============================================================================
   1(1)    1.90    67.02047   2.97953      9  19   0   7     8      8    0.44
   2(2)    1.90    66.79606   3.20394      9  20   0   6     8      7    0.41
   3(3)    1.90    67.02946   2.97054      9  19   0   7     8      7    0.48
   4(4)    1.90    66.82962   3.17038      9  20   0   6     8      7    0.41
   5(5)    1.90    67.02047   2.97953      9  19   0   7     8      8    0.44
   6(6)    1.90    66.79606   3.20394      9  20   0   6     8      7    0.41
   7(7)    1.90    67.02946   2.97054      9  19   0   7     8      7    0.48
   8(8)    1.90    66.82962   3.17038      9  20   0   6     8      7    0.41
   9(9)    1.90    67.02047   2.97953      9  19   0   7     8      8    0.44
  10(1)    1.80    68.07695   1.92305      9  16   0  10     2      6    0.48
  11(2)    1.80    68.03763   1.96237      9  16   0  10     2      6    0.44
  12(3)    1.80    68.07695   1.92305      9  16   0  10     2      6    0.48
  13(4)    1.80    68.03763   1.96237      9  16   0  10     2      6    0.44
  14(5)    1.80    68.07695   1.92305      9  16   0  10     2      6    0.48
  15(6)    1.80    68.03763   1.96237      9  16   0  10     2      6    0.44
  16(7)    1.80    68.07695   1.92305      9  16   0  10     2      6    0.48
  17(8)    1.80    68.03763   1.96237      9  16   0  10     2      6    0.44
  18(9)    1.80    68.07695   1.92305      9  16   0  10     2      6    0.48
  19(1)    1.70    68.14624   1.85376      9  16   0  10     3      6    0.48
  20(2)    1.70    68.10695   1.89305      9  16   0  10     3      6    0.46
  21(3)    1.70    68.03763   1.96237      9  16   0  10     2      6    0.44
  22(4)    1.70    68.07695   1.92305      9  16   0  10     2      6    0.48
  23(5)    1.70    68.03763   1.96237      9  16   0  10     2      6    0.44
  24(6)    1.70    68.07695   1.92305      9  16   0  10     2      6    0.48
  25(7)    1.70    68.03763   1.96237      9  16   0  10     2      6    0.44
  26(8)    1.70    68.07695   1.92305      9  16   0  10     2      6    0.48
  27(9)    1.70    68.03763   1.96237      9  16   0  10     2      6    0.44
  28(1)    1.60    67.81318   2.18682      9  15   0  11     0      5    0.48
  29(2)    1.60    67.81318   2.18682      9  15   0  11     0      5    0.48
  30(1)    1.50    67.38321   2.61679      9  14   0  12     0      5    0.56
  31(2)    1.50    67.25913   2.74087      9  14   0  12     0      5    0.56
  32(3)    1.50    67.25913   2.74087      9  14   0  12     0      5    0.56
  33(4)    1.50    67.25913   2.74087      9  14   0  12     0      5    0.56
  34(5)    1.50    67.25913   2.74087      9  14   0  12     0      5    0.56
  35(6)    1.50    67.25913   2.74087      9  14   0  12     0      5    0.56
  36(7)    1.50    67.25913   2.74087      9  14   0  12     0      5    0.56
  37(8)    1.50    67.25913   2.74087      9  14   0  12     0      5    0.56
  38(9)    1.50    67.25913   2.74087      9  14   0  12     0      5    0.56
  39(1)    1.70    68.14624   1.85376      9  16   0  10     3      6    0.48
 -----------------------------------------------------------------------------

 Strongly delocalized structure accepted

           1 low occupancy (<1.9990e) core orbital  found on  C 1

 --------------------------------------------------------
   Core                     17.99540 ( 99.974% of  18)
   Valence Lewis            50.15085 ( 96.444% of  52)
  ==================       ============================
   Total Lewis              68.14624 ( 97.352% of  70)
  -----------------------------------------------------
   Valence non-Lewis         1.63803 (  2.340% of  70)
   Rydberg non-Lewis         0.21572 (  0.308% of  70)
  ==================       ============================
   Total non-Lewis           1.85376 (  2.648% of  70)
 --------------------------------------------------------


     (Occupancy)   Bond orbital/ Coefficients/ Hybrids
 -------------------------------------------------------------------------------
   1. (1.98787) BD ( 1) C  1- O  2       
               ( 34.93%)   0.5910* C  1 s( 31.61%)p 2.16( 68.24%)d 0.00(  0.15%)
                                         0.0003 -0.5579 -0.0696  0.0034 -0.0036
                                        -0.0171 -0.0130  0.0020  0.6869  0.0488
                                         0.0078  0.4520  0.0577 -0.0025  0.0012
                                        -0.0014 -0.0297  0.0240  0.0069
               ( 65.07%)   0.8067* O  2 s( 37.22%)p 1.68( 62.52%)d 0.01(  0.26%)
                                        -0.0001 -0.6098  0.0179 -0.0043  0.0022
                                         0.0593  0.0003  0.0005 -0.4240  0.0120
                                         0.0035 -0.6646  0.0121  0.0019  0.0033
                                         0.0040 -0.0434  0.0204 -0.0156
   2. (1.97574) BD ( 1) C  1- C  3       
               ( 48.79%)   0.6985* C  1 s( 33.90%)p 1.95( 66.03%)d 0.00(  0.08%)
                                        -0.0001  0.5820 -0.0114  0.0060 -0.0025
                                        -0.6778 -0.0055  0.0039  0.4475 -0.0012
                                        -0.0026  0.0130 -0.0176 -0.0054 -0.0215
                                        -0.0046  0.0012  0.0082 -0.0145
               ( 51.21%)   0.7156* C  3 s( 35.82%)p 1.79( 64.11%)d 0.00(  0.06%)
                                         0.0001  0.5979 -0.0268  0.0019 -0.0040
                                         0.6659 -0.0139 -0.0144 -0.3938  0.0042
                                         0.0119 -0.2047 -0.0120 -0.0005 -0.0162
                                        -0.0093  0.0028  0.0108 -0.0128
   3. (1.97132) BD ( 1) C  1- C  9       
               ( 53.09%)   0.7286* C  1 s( 31.40%)p 2.18( 68.53%)d 0.00(  0.07%)
                                        -0.0004  0.5598 -0.0234 -0.0004 -0.0010
                                         0.7246 -0.0101 -0.0020  0.3635 -0.0158
                                        -0.0074  0.1661 -0.0147 -0.0013  0.0173
                                         0.0103  0.0067  0.0093 -0.0127
               ( 46.91%)   0.6849* C  9 s( 32.68%)p 2.06( 67.23%)d 0.00(  0.09%)
                                         0.0002  0.5681  0.0637 -0.0028 -0.0049
                                        -0.7195  0.0106  0.0227 -0.3739 -0.0082
                                         0.0089 -0.1184 -0.0024  0.0027  0.0191
                                         0.0041  0.0098  0.0158 -0.0115
   4. (1.69234) BD ( 1) C  1- C 12       
               ( 34.01%)   0.5832* C  1 s(  3.14%)p30.86( 96.75%)d 0.04(  0.12%)
                                         0.0001  0.1765 -0.0005 -0.0144 -0.0025
                                        -0.1186  0.0199  0.0044 -0.4341 -0.0005
                                         0.0115  0.8739 -0.0169 -0.0204  0.0109
                                        -0.0208 -0.0086  0.0102  0.0208
               ( 65.99%)   0.8123* C 12 s( 19.28%)p 4.19( 80.71%)d 0.00(  0.00%)
                                         0.0016  0.4332 -0.0720  0.0030  0.0026
                                         0.1858 -0.0210  0.0037  0.5288 -0.0632
                                        -0.0119 -0.6964  0.0578  0.0019 -0.0004
                                        -0.0024 -0.0053  0.0008  0.0034
   5. (1.99573) BD ( 1) C  3- O  4       
               ( 34.89%)   0.5907* C  3 s( 31.38%)p 2.18( 68.47%)d 0.00(  0.14%)
                                        -0.0001  0.5571  0.0592  0.0033  0.0034
                                        -0.7313 -0.0543 -0.0099 -0.2357 -0.0112
                                        -0.0040 -0.2999 -0.0351 -0.0053  0.0149
                                         0.0218  0.0049  0.0244 -0.0111
               ( 65.11%)   0.8069* O  4 s( 40.77%)p 1.45( 58.96%)d 0.01(  0.27%)
                                         0.0000  0.6384 -0.0098  0.0064 -0.0021
                                         0.6598 -0.0189 -0.0048  0.1050 -0.0066
                                        -0.0018  0.3778 -0.0116 -0.0026  0.0149
                                         0.0360  0.0061  0.0324 -0.0089
   6. (1.98918) BD ( 2) C  3- O  4       
               ( 26.14%)   0.5113* C  3 s(  0.07%)p99.99( 99.63%)d 4.24(  0.30%)
                                        -0.0001  0.0198 -0.0164 -0.0064  0.0000
                                        -0.1223  0.0063 -0.0084 -0.5880  0.0268
                                        -0.0180  0.7957 -0.0286  0.0232  0.0304
                                        -0.0345  0.0075  0.0032 -0.0282
               ( 73.86%)   0.8594* O  4 s(  0.44%)p99.99( 99.35%)d 0.47(  0.21%)
                                         0.0000 -0.0663  0.0003  0.0010  0.0007
                                        -0.2551  0.0018 -0.0005 -0.6268  0.0059
                                        -0.0003  0.7317 -0.0074  0.0018 -0.0279
                                         0.0222 -0.0043 -0.0035  0.0277
   7. (1.98945) BD ( 1) C  3- C  5       
               ( 48.04%)   0.6931* C  3 s( 32.77%)p 2.05( 67.17%)d 0.00(  0.07%)
                                        -0.0003  0.5724 -0.0063 -0.0065  0.0021
                                         0.0258 -0.0132 -0.0003  0.6639  0.0074
                                        -0.0040  0.4795 -0.0080 -0.0012  0.0028
                                         0.0000  0.0204 -0.0153  0.0007
               ( 51.96%)   0.7208* C  5 s( 27.14%)p 2.68( 72.80%)d 0.00(  0.06%)
                                         0.0002  0.5209 -0.0062 -0.0066  0.0005
                                        -0.0176 -0.0118  0.0004 -0.7178  0.0038
                                         0.0072 -0.4607 -0.0024  0.0013  0.0025
                                         0.0003  0.0192 -0.0152 -0.0001
   8. (1.98787) BD ( 1) C  5- H  6       
               ( 62.20%)   0.7887* C  5 s( 25.66%)p 2.89( 74.25%)d 0.00(  0.09%)
                                        -0.0002  0.5066  0.0024  0.0032 -0.0006
                                         0.7083  0.0031 -0.0041  0.0358  0.0054
                                         0.0062  0.4893 -0.0008  0.0025  0.0017
                                         0.0238  0.0016  0.0170 -0.0006
               ( 37.80%)   0.6148* H  6 s(100.00%)
                                         1.0000  0.0025
   9. (1.97892) BD ( 1) C  5- H  7       
               ( 61.46%)   0.7840* C  5 s( 23.54%)p 3.24( 76.37%)d 0.00(  0.09%)
                                        -0.0001  0.4852  0.0011  0.0035  0.0005
                                        -0.0144  0.0094  0.0013  0.6933  0.0013
                                         0.0080 -0.5317 -0.0005  0.0038 -0.0014
                                         0.0007 -0.0248 -0.0161  0.0030
               ( 38.54%)   0.6208* H  7 s(100.00%)
                                         1.0000  0.0020
  10. (1.98792) BD ( 1) C  5- H  8       
               ( 60.30%)   0.7765* C  5 s( 23.65%)p 3.22( 76.26%)d 0.00(  0.09%)
                                         0.0001 -0.4862 -0.0087 -0.0018  0.0003
                                         0.7047 -0.0008 -0.0003 -0.0397 -0.0001
                                        -0.0075 -0.5142 -0.0027 -0.0072  0.0010
                                         0.0246 -0.0015 -0.0171  0.0007
               ( 39.70%)   0.6301* H  8 s(100.00%)
                                        -1.0000 -0.0046
  11. (1.99576) BD ( 1) C  9- O 10       
               ( 34.34%)   0.5860* C  9 s( 34.46%)p 1.90( 65.38%)d 0.00(  0.16%)
                                        -0.0001  0.5849 -0.0492  0.0009  0.0057
                                         0.5298  0.0507 -0.0065 -0.3058 -0.0068
                                        -0.0062  0.5252  0.0319  0.0018 -0.0206
                                         0.0269 -0.0158  0.0092  0.0125
               ( 65.66%)   0.8103* O 10 s( 37.97%)p 1.63( 61.77%)d 0.01(  0.26%)
                                         0.0000  0.6160 -0.0123 -0.0075  0.0041
                                        -0.5506  0.0120  0.0011  0.3836 -0.0149
                                         0.0023 -0.4084  0.0157 -0.0003 -0.0287
                                         0.0337 -0.0227  0.0105  0.0017
  12. (1.99108) BD ( 1) C  9- O 11       
               ( 33.06%)   0.5750* C  9 s( 27.59%)p 2.62( 72.21%)d 0.01(  0.19%)
                                        -0.0002  0.5239 -0.0385 -0.0060  0.0021
                                        -0.0156  0.0375 -0.0047  0.8437  0.0351
                                        -0.0009 -0.0808 -0.0287  0.0010 -0.0003
                                        -0.0029 -0.0169 -0.0362 -0.0180
               ( 66.94%)   0.8181* O 11 s( 32.30%)p 2.09( 67.45%)d 0.01(  0.24%)
                                         0.0000  0.5682 -0.0094 -0.0078  0.0038
                                        -0.2486  0.0002  0.0010 -0.4280  0.0173
                                         0.0012  0.6550 -0.0140  0.0008  0.0129
                                        -0.0125 -0.0404 -0.0208  0.0064
  13. (1.98437) BD ( 2) C  9- O 11       
               ( 24.79%)   0.4979* C  9 s(  5.68%)p16.56( 94.00%)d 0.06(  0.32%)
                                         0.0000 -0.2369  0.0241 -0.0057 -0.0050
                                        -0.4360 -0.0016  0.0041  0.2205 -0.0410
                                        -0.0001  0.8361 -0.0221  0.0126 -0.0175
                                         0.0144  0.0321 -0.0150 -0.0378
               ( 75.21%)   0.8672* O 11 s(  5.27%)p17.94( 94.53%)d 0.04(  0.20%)
                                         0.0000 -0.2294  0.0052  0.0041 -0.0004
                                        -0.2980  0.0052 -0.0022  0.7326 -0.0116
                                         0.0004  0.5654  0.0002 -0.0008  0.0052
                                        -0.0104 -0.0018  0.0323  0.0285
  14. (1.99595) BD ( 1) C 12- H 13       
               ( 60.59%)   0.7784* C 12 s( 27.43%)p 2.64( 72.47%)d 0.00(  0.10%)
                                         0.0000  0.5229  0.0285  0.0037 -0.0001
                                        -0.5211 -0.0204 -0.0024 -0.6110 -0.0234
                                        -0.0085 -0.2798 -0.0221  0.0090  0.0246
                                         0.0086  0.0116 -0.0042 -0.0128
               ( 39.41%)   0.6277* H 13 s(100.00%)
                                         1.0000  0.0027
  15. (1.98215) BD ( 1) C 12- H 14       
               ( 61.97%)   0.7872* C 12 s( 25.89%)p 2.86( 74.01%)d 0.00(  0.10%)
                                        -0.0001  0.5080  0.0297 -0.0017 -0.0003
                                         0.7501  0.0384 -0.0044 -0.3260  0.0034
                                        -0.0012  0.2639 -0.0014  0.0082 -0.0175
                                         0.0152 -0.0047  0.0171 -0.0103
               ( 38.03%)   0.6167* H 14 s(100.00%)
                                         1.0000  0.0040
  16. (1.99248) BD ( 1) C 12- H 15       
               ( 59.10%)   0.7688* C 12 s( 27.96%)p 2.57( 71.94%)d 0.00(  0.10%)
                                         0.0000  0.5280  0.0282 -0.0055 -0.0011
                                        -0.3579 -0.0111  0.0008  0.4831  0.0291
                                        -0.0065  0.5968  0.0255  0.0099 -0.0116
                                        -0.0170  0.0217 -0.0008  0.0122
               ( 40.90%)   0.6395* H 15 s(100.00%)
                                         1.0000  0.0043
  17. (1.99891) CR ( 1) C  1             s(100.00%)p 0.00(  0.00%)
                                         1.0000  0.0004  0.0000  0.0000  0.0000
                                         0.0002  0.0000  0.0000  0.0000  0.0000
                                         0.0000 -0.0001  0.0000  0.0000  0.0000
                                         0.0000  0.0000  0.0000  0.0000
  18. (1.99978) CR ( 1) O  2             s(100.00%)p 0.00(  0.00%)
                                         1.0000  0.0003  0.0000  0.0000  0.0000
                                         0.0000  0.0000  0.0000 -0.0003  0.0000
                                         0.0000 -0.0002  0.0000  0.0000  0.0000
                                         0.0000  0.0000  0.0000  0.0000
  19. (1.99913) CR ( 1) C  3             s(100.00%)p 0.00(  0.00%)
                                         1.0000  0.0002  0.0000  0.0000  0.0000
                                        -0.0001  0.0000  0.0000  0.0002  0.0000
                                         0.0000  0.0002  0.0000  0.0000  0.0000
                                         0.0000  0.0000  0.0000  0.0000
  20. (1.99977) CR ( 1) O  4             s(100.00%)p 0.00(  0.00%)
                                         1.0000  0.0003  0.0000  0.0000  0.0000
                                        -0.0003  0.0000  0.0000  0.0000  0.0000
                                         0.0000 -0.0001  0.0000  0.0000  0.0000
                                         0.0000  0.0000  0.0000  0.0000
  21. (1.99938) CR ( 1) C  5             s(100.00%)p 0.00(  0.00%)
                                         1.0000  0.0001  0.0000  0.0000  0.0000
                                         0.0001  0.0000  0.0000  0.0002  0.0000
                                         0.0000  0.0001  0.0000  0.0000  0.0000
                                         0.0000  0.0000  0.0000  0.0000
  22. (1.99940) CR ( 1) C  9             s(100.00%)p 0.00(  0.00%)
                                         1.0000  0.0000  0.0000  0.0000  0.0000
                                         0.0002  0.0000  0.0000  0.0002  0.0000
                                         0.0000  0.0000  0.0000  0.0000  0.0000
                                         0.0000  0.0000  0.0000  0.0000
  23. (1.99979) CR ( 1) O 10             s(100.00%)p 0.00(  0.00%)
                                         1.0000  0.0003  0.0000  0.0000  0.0000
                                         0.0002  0.0000  0.0000 -0.0002  0.0000
                                         0.0000  0.0002  0.0000  0.0000  0.0000
                                         0.0000  0.0000  0.0000  0.0000
  24. (1.99980) CR ( 1) O 11             s(100.00%)p 0.00(  0.00%)
                                         1.0000  0.0003  0.0000  0.0000  0.0000
                                         0.0000  0.0000  0.0000  0.0003  0.0000
                                         0.0000 -0.0002  0.0000  0.0000  0.0000
                                         0.0000  0.0000  0.0000  0.0000
  25. (1.99943) CR ( 1) C 12             s(100.00%)p 0.00(  0.00%)
                                         1.0000 -0.0006  0.0001  0.0000  0.0000
                                        -0.0002  0.0000  0.0000 -0.0009  0.0001
                                         0.0000  0.0012 -0.0001  0.0000  0.0000
                                         0.0000  0.0000  0.0000  0.0000
  26. (1.97793) LP ( 1) O  2             s( 59.94%)p 0.67( 40.03%)d 0.00(  0.03%)
                                        -0.0005  0.7741  0.0097 -0.0021  0.0013
                                         0.0336  0.0009  0.0002 -0.4995  0.0041
                                        -0.0010 -0.3869  0.0037 -0.0015  0.0015
                                         0.0006 -0.0158  0.0085 -0.0007
  27. (1.87545) LP ( 2) O  2             s(  0.01%)p 1.00( 99.85%)d 0.00(  0.14%)
                                         0.0000  0.0093  0.0025 -0.0007  0.0002
                                        -0.9903 -0.0124 -0.0008  0.0448  0.0003
                                        -0.0001 -0.1253 -0.0015 -0.0005 -0.0277
                                        -0.0243 -0.0028  0.0003 -0.0050
  28. (1.60066) LP ( 3) O  2             s(  2.84%)p34.09( 96.98%)d 0.06(  0.18%)
                                         0.0000  0.1686 -0.0058 -0.0007 -0.0009
                                         0.1147 -0.0011  0.0005  0.7524 -0.0011
                                        -0.0005 -0.6249 -0.0010 -0.0003  0.0024
                                         0.0033  0.0029 -0.0266 -0.0324
  29. (1.97662) LP ( 1) O  4             s( 58.76%)p 0.70( 41.21%)d 0.00(  0.04%)
                                        -0.0005  0.7665  0.0052 -0.0034  0.0013
                                        -0.5745  0.0039 -0.0009 -0.1391  0.0058
                                         0.0002 -0.2501  0.0057 -0.0001 -0.0061
                                        -0.0119 -0.0047 -0.0117  0.0051
  30. (1.88982) LP ( 2) O  4             s(  0.01%)p 1.00( 99.85%)d 0.00(  0.14%)
                                        -0.0001 -0.0029  0.0067  0.0025 -0.0001
                                        -0.4080 -0.0086 -0.0014  0.7581  0.0131
                                         0.0011  0.5070  0.0073  0.0005  0.0208
                                         0.0089  0.0183 -0.0200  0.0133
  31. (1.97709) LP ( 1) O 10             s( 61.60%)p 0.62( 38.37%)d 0.00(  0.03%)
                                        -0.0004  0.7848  0.0076  0.0032 -0.0023
                                         0.4176 -0.0004 -0.0041 -0.2502  0.0060
                                        -0.0003  0.3829 -0.0041 -0.0018  0.0077
                                        -0.0124  0.0082 -0.0039 -0.0006
  32. (1.88686) LP ( 2) O 10             s(  0.03%)p99.99( 99.83%)d 5.64(  0.14%)
                                        -0.0001  0.0134 -0.0087 -0.0002 -0.0001
                                        -0.6410 -0.0095 -0.0013 -0.7432 -0.0118
                                        -0.0010  0.1865  0.0012  0.0017  0.0083
                                         0.0105  0.0203  0.0281 -0.0074
  33. (1.60575) LP ( 3) O 10             s(  0.40%)p99.99( 99.42%)d 0.47(  0.19%)
                                         0.0000  0.0628 -0.0028 -0.0003  0.0003
                                         0.3300  0.0028 -0.0006 -0.4857 -0.0024
                                         0.0005 -0.8058  0.0017 -0.0012  0.0196
                                         0.0158 -0.0021 -0.0010  0.0350
  34. (1.97757) LP ( 1) O 11             s( 62.41%)p 0.60( 37.56%)d 0.00(  0.03%)
                                        -0.0004  0.7900  0.0066  0.0038 -0.0020
                                         0.0979  0.0028 -0.0035  0.5223 -0.0048
                                        -0.0038 -0.3053  0.0040  0.0016 -0.0040
                                         0.0015  0.0129  0.0097  0.0020
  35. (1.88500) LP ( 2) O 11             s(  0.01%)p99.99( 99.85%)d10.97(  0.14%)
                                         0.0001 -0.0047  0.0103  0.0006 -0.0002
                                         0.9154  0.0140  0.0026  0.0661  0.0020
                                        -0.0008  0.3948  0.0070 -0.0009 -0.0296
                                         0.0147 -0.0111 -0.0040  0.0134
  36. (0.01718) RY*( 1) C  1             s( 22.40%)p 3.42( 76.68%)d 0.04(  0.92%)
                                         0.0000 -0.0611  0.4678  0.0370 -0.0078
                                        -0.0027  0.0863 -0.0153  0.0683 -0.7113
                                         0.0015  0.0296 -0.4883 -0.0961  0.0326
                                        -0.0160 -0.0067  0.0365  0.0805
  37. (0.00701) RY*( 2) C  1             s(  2.07%)p33.74( 69.95%)d13.50( 27.98%)
                                         0.0000 -0.0289 -0.0820  0.1147  0.0049
                                         0.0007 -0.4752  0.0743 -0.0122  0.1610
                                        -0.2941  0.0283 -0.5401  0.2510 -0.1929
                                         0.0756 -0.0212 -0.1604 -0.4590
  38. (0.00531) RY*( 3) C  1             s(  1.67%)p23.58( 39.35%)d35.35( 58.99%)
                                         0.0000  0.0089  0.1245  0.0324 -0.0076
                                         0.0210 -0.4879  0.2619 -0.0042  0.0747
                                         0.1903 -0.0154  0.0170 -0.2099 -0.4221
                                        -0.5016 -0.0831  0.2216  0.3226
  39. (0.00368) RY*( 4) C  1             s( 22.50%)p 3.15( 70.78%)d 0.30(  6.71%)
                                         0.0000 -0.0051  0.4683 -0.0563 -0.0504
                                         0.0108  0.2667 -0.0515  0.0349  0.6717
                                        -0.0299 -0.0037 -0.4089 -0.1159  0.1344
                                        -0.0070  0.0463  0.0726  0.2039
  40. (0.00317) RY*( 5) C  1             s( 19.47%)p 1.54( 30.03%)d 2.59( 50.51%)
                                         0.0000  0.0028  0.4330  0.0455 -0.0715
                                         0.0195  0.3735  0.0890  0.0197  0.0180
                                        -0.0768  0.0276  0.3126  0.2178 -0.4907
                                        -0.2438 -0.0430 -0.2471 -0.3767
  41. (0.00132) RY*( 6) C  1             s( 31.28%)p 1.66( 51.78%)d 0.54( 16.94%)
                                         0.0000  0.0138  0.5387 -0.1456 -0.0351
                                        -0.0093 -0.5179 -0.3139  0.0020  0.0244
                                        -0.0499  0.0201  0.3835 -0.0206  0.2056
                                         0.2742 -0.1839  0.0569 -0.1221
  42. (0.00064) RY*( 7) C  1             s(  0.60%)p50.10( 29.85%)d99.99( 69.56%)
                                         0.0000  0.0000 -0.0183  0.0462  0.0590
                                        -0.0012 -0.0843 -0.1754  0.0133  0.0406
                                         0.4871 -0.0057 -0.0923 -0.1138  0.3623
                                        -0.4317 -0.1525 -0.5617 -0.1979
  43. (0.00040) RY*( 8) C  1             s( 23.52%)p 1.01( 23.87%)d 2.24( 52.61%)
                                         0.0000  0.0056  0.0895  0.4757  0.0298
                                         0.0017 -0.1107 -0.1717  0.0073  0.0310
                                         0.3145  0.0255  0.0160  0.3100 -0.2432
                                         0.3449  0.2757 -0.3223  0.4100
  44. (0.00035) RY*( 9) C  1             s( 51.17%)p 0.09(  4.46%)d 0.87( 44.36%)
                                         0.0000  0.0103  0.0050  0.7147 -0.0287
                                         0.0029  0.1173  0.0214 -0.0236  0.0512
                                         0.1614 -0.0113  0.0125 -0.0292  0.1178
                                         0.0424 -0.4446  0.4226 -0.2273
  45. (0.00026) RY*(10) C  1             s(  3.63%)p19.68( 71.34%)d 6.91( 25.03%)
                                         0.0000  0.0019  0.1513 -0.0802 -0.0832
                                        -0.0096 -0.0732  0.5140  0.0079 -0.0156
                                         0.1938  0.0047  0.0534  0.6348  0.4171
                                        -0.1222  0.1757  0.1748  0.0010
  46. (0.00012) RY*(11) C  1             s( 34.82%)p 0.95( 33.21%)d 0.92( 31.98%)
                                         0.0000  0.0064 -0.0595 -0.4076  0.4225
                                         0.0058  0.1006 -0.1671 -0.0031  0.0201
                                         0.3893 -0.0094 -0.1685  0.3370 -0.2621
                                         0.1537 -0.4431  0.1758  0.0158
  47. (0.00010) RY*(12) C  1             s(  4.18%)p13.50( 56.46%)d 9.41( 39.35%)
                                         0.0000 -0.0024 -0.0429  0.1140  0.1642
                                        -0.0028 -0.0051 -0.6234 -0.0009 -0.0263
                                        -0.2428  0.0015  0.0018  0.3411  0.0646
                                        -0.4993  0.2385  0.2833  0.0538
  48. (0.00007) RY*(13) C  1             s( 45.41%)p 0.61( 27.76%)d 0.59( 26.83%)
  49. (0.00003) RY*(14) C  1             s( 37.24%)p 0.40( 14.95%)d 1.28( 47.81%)
  50. (0.00412) RY*( 1) O  2             s(  0.65%)p99.99( 98.59%)d 1.16(  0.76%)
                                         0.0000  0.0005  0.0614 -0.0434 -0.0297
                                         0.0096 -0.9528  0.0742  0.0006  0.1477
                                        -0.0179  0.0015 -0.2227 -0.0267  0.0674
                                         0.0285 -0.0049  0.0411  0.0231
  51. (0.00291) RY*( 2) O  2             s(  5.18%)p18.06( 93.45%)d 0.27(  1.38%)
                                         0.0000  0.0009  0.2097  0.0879 -0.0086
                                         0.0021 -0.2475  0.0292 -0.0008 -0.6832
                                        -0.0210  0.0056  0.6358  0.0298 -0.0098
                                         0.0147 -0.0046 -0.0403 -0.1087
  52. (0.00078) RY*( 3) O  2             s( 68.79%)p 0.42( 28.62%)d 0.04(  2.59%)
                                         0.0000  0.0024  0.8036  0.1470 -0.1435
                                        -0.0001  0.1259 -0.0985  0.0145 -0.1742
                                        -0.1693  0.0079 -0.4131 -0.1753  0.0356
                                         0.0096 -0.1453  0.0572  0.0138
  53. (0.00029) RY*( 4) O  2             s( 25.30%)p 2.57( 64.93%)d 0.39(  9.77%)
                                         0.0000  0.0022  0.3810  0.2257  0.2384
                                         0.0007 -0.0356 -0.2154  0.0046  0.3218
                                         0.4165  0.0013  0.1947  0.5354  0.0018
                                        -0.0389  0.0664 -0.2400  0.1851
  54. (0.00016) RY*( 5) O  2             s( 39.96%)p 1.38( 55.32%)d 0.12(  4.72%)
                                         0.0000 -0.0077 -0.2757  0.5570  0.1154
                                         0.0043 -0.0142  0.1271 -0.0193 -0.4089
                                        -0.0521 -0.0180 -0.4630  0.3896 -0.1191
                                        -0.0234  0.1739 -0.0322 -0.0343
  55. (0.00010) RY*( 6) O  2             s(  5.46%)p14.97( 81.67%)d 2.36( 12.87%)
                                         0.0000  0.0040  0.2152 -0.0210 -0.0884
                                         0.0083  0.0645  0.8649  0.0071  0.1830
                                         0.0387  0.0094  0.0913  0.1449 -0.3364
                                        -0.0100 -0.0329  0.0776 -0.0913
  56. (0.00010) RY*( 7) O  2             s(  2.62%)p34.08( 89.44%)d 3.03(  7.94%)
  57. (0.00004) RY*( 8) O  2             s( 37.11%)p 0.30( 11.29%)d 1.39( 51.60%)
  58. (0.00002) RY*( 9) O  2             s(  1.75%)p 7.69( 13.45%)d48.49( 84.80%)
  59. (0.00001) RY*(10) O  2             s( 22.35%)p 1.36( 30.37%)d 2.12( 47.28%)
  60. (0.00002) RY*(11) O  2             s(  0.12%)p48.83(  5.91%)d99.99( 93.96%)
  61. (0.00001) RY*(12) O  2             s( 86.27%)p 0.11(  9.35%)d 0.05(  4.38%)
  62. (0.00001) RY*(13) O  2             s(  4.20%)p 2.77( 11.64%)d20.05( 84.16%)
  63. (0.00001) RY*(14) O  2             s(  0.23%)p28.28(  6.60%)d99.99( 93.17%)
  64. (0.01812) RY*( 1) C  3             s( 17.48%)p 4.67( 81.58%)d 0.05(  0.94%)
                                         0.0000 -0.0531  0.4133  0.0150 -0.0310
                                         0.0569 -0.8054 -0.0416  0.0056 -0.1963
                                        -0.0097  0.0317 -0.3336 -0.1062 -0.0200
                                         0.0561 -0.0072 -0.0561  0.0517
  65. (0.00889) RY*( 2) C  3             s(  2.65%)p30.33( 80.46%)d 6.36( 16.88%)
                                         0.0000 -0.0031 -0.1045  0.1249  0.0036
                                        -0.0097  0.2311 -0.2894  0.0131 -0.6940
                                         0.2621  0.0161 -0.3328  0.0770 -0.2293
                                        -0.1269 -0.1732  0.2214 -0.1455
  66. (0.00528) RY*( 3) C  3             s(  1.43%)p29.53( 42.13%)d39.56( 56.44%)
                                         0.0000 -0.0222 -0.0716  0.0926 -0.0081
                                         0.0107 -0.0509 -0.1651  0.0441  0.2180
                                        -0.2572 -0.0545 -0.3646  0.3739  0.3760
                                        -0.4561  0.2451  0.1403 -0.3678
  67. (0.00345) RY*( 4) C  3             s(  9.18%)p 4.90( 44.97%)d 5.00( 45.85%)
                                         0.0000 -0.0071 -0.0363  0.3006 -0.0079
                                        -0.0138 -0.2835 -0.1125  0.0151  0.4034
                                         0.2946  0.0140  0.2799  0.1679 -0.3791
                                        -0.1072 -0.3080  0.4078 -0.2054
  68. (0.00233) RY*( 5) C  3             s( 16.78%)p 4.09( 68.60%)d 0.87( 14.62%)
                                         0.0000 -0.0072  0.3715 -0.1648 -0.0508
                                         0.0164  0.3552 -0.1378  0.0113  0.4549
                                         0.0474 -0.0012 -0.5576 -0.1430 -0.2008
                                         0.1938 -0.2458 -0.0410 -0.0786
  69. (0.00170) RY*( 6) C  3             s( 63.74%)p 0.47( 29.66%)d 0.10(  6.60%)
                                         0.0000  0.0113  0.7980  0.0016  0.0216
                                         0.0371  0.2450  0.0433 -0.0026 -0.1862
                                        -0.1312  0.0179  0.3735  0.2040  0.0459
                                        -0.1336  0.0450  0.1957 -0.0754
  70. (0.00073) RY*( 7) C  3             s( 36.00%)p 0.60( 21.51%)d 1.18( 42.48%)
                                         0.0000  0.0003 -0.0095  0.5999  0.0028
                                         0.0236  0.0847  0.3235  0.0055 -0.0466
                                        -0.2122  0.0143 -0.1487 -0.1822  0.3472
                                         0.3843 -0.1858  0.3477 -0.0346
  71. (0.00037) RY*( 8) C  3             s( 14.74%)p 1.82( 26.84%)d 3.96( 58.43%)
                                         0.0000  0.0125  0.0259  0.3800 -0.0459
                                        -0.0187  0.0808  0.3248 -0.0080  0.0092
                                        -0.3139 -0.0064 -0.1151 -0.2099 -0.4807
                                        -0.5245  0.0348 -0.2309  0.1534
  72. (0.00028) RY*( 9) C  3             s(  1.21%)p25.77( 31.10%)d56.08( 67.69%)
                                         0.0000  0.0109  0.0208 -0.0363  0.1010
                                        -0.0016 -0.0304  0.4623  0.0018 -0.0893
                                         0.2133 -0.0103  0.0062  0.2066  0.1234
                                        -0.0407 -0.4183 -0.4826 -0.5022
  73. (0.00019) RY*(10) C  3             s(  4.57%)p12.73( 58.25%)d 8.13( 37.18%)
                                         0.0000  0.0011 -0.0653  0.1735  0.1067
                                        -0.0005 -0.0296 -0.2810 -0.0061 -0.0564
                                        -0.5161  0.0012  0.0502  0.4802 -0.3144
                                         0.4322 -0.0577 -0.2827 -0.0543
  74. (0.00015) RY*(11) C  3             s( 26.81%)p 1.57( 42.19%)d 1.16( 31.00%)
                                         0.0000  0.0042  0.1342  0.4926  0.0862
                                        -0.0007  0.0681 -0.5281 -0.0055  0.0761
                                         0.2393 -0.0004  0.1527 -0.2279  0.2900
                                        -0.0968 -0.0268 -0.4629  0.0395
  75. (0.00008) RY*(12) C  3             s( 23.93%)p 1.92( 45.89%)d 1.26( 30.17%)
  76. (0.00005) RY*(13) C  3             s( 32.21%)p 0.64( 20.76%)d 1.46( 47.03%)
  77. (0.00002) RY*(14) C  3             s( 49.23%)p 0.14(  6.67%)d 0.90( 44.11%)
  78. (0.00514) RY*( 1) O  4             s(  3.27%)p29.27( 95.79%)d 0.29(  0.94%)
                                         0.0000 -0.0028  0.1705  0.0601  0.0060
                                         0.0100 -0.5223  0.0350 -0.0116  0.6096
                                         0.0041 -0.0030  0.5566 -0.0464 -0.0252
                                        -0.0486 -0.0524  0.0511 -0.0321
  79. (0.00243) RY*( 2) O  4             s(  0.39%)p99.99( 97.67%)d 4.97(  1.94%)
                                         0.0000 -0.0004  0.0439  0.0439  0.0069
                                        -0.0067 -0.1947  0.0031 -0.0080 -0.7482
                                         0.0309  0.0112  0.6129 -0.0454  0.0647
                                        -0.0705  0.0720  0.0095 -0.0706
  80. (0.00039) RY*( 3) O  4             s( 70.43%)p 0.37( 26.12%)d 0.05(  3.45%)
                                         0.0000  0.0063  0.8263 -0.0526 -0.1372
                                         0.0188  0.3403  0.1904 -0.0040  0.0064
                                        -0.2891  0.0066  0.0582 -0.1474  0.1347
                                        -0.0356 -0.0189 -0.0991  0.0699
  81. (0.00032) RY*( 4) O  4             s(  9.03%)p 9.22( 83.28%)d 0.85(  7.68%)
                                         0.0000 -0.0033  0.2228  0.1169 -0.1643
                                        -0.0006 -0.5588 -0.4249 -0.0039 -0.1599
                                        -0.0444 -0.0054 -0.4215 -0.3673 -0.0229
                                        -0.1595  0.0131 -0.2047  0.0939
  82. (0.00021) RY*( 5) O  4             s( 36.61%)p 1.52( 55.62%)d 0.21(  7.77%)
                                         0.0000 -0.0048  0.3211  0.4752  0.1928
                                        -0.0122 -0.2354  0.0925 -0.0006 -0.1158
                                         0.1442 -0.0088 -0.2131  0.6421  0.1017
                                         0.1200 -0.1693  0.1550  0.0167
  83. (0.00013) RY*( 6) O  4             s(  6.73%)p13.03( 87.65%)d 0.84(  5.62%)
                                         0.0000  0.0012  0.2151 -0.0796 -0.1210
                                         0.0025  0.1507 -0.0574  0.0063  0.0108
                                         0.8961  0.0025  0.0257 -0.2162 -0.0530
                                         0.0265 -0.1963  0.1141  0.0340
  84. (0.00008) RY*( 7) O  4             s(  1.84%)p45.07( 82.81%)d 8.35( 15.35%)
  85. (0.00003) RY*( 8) O  4             s( 45.60%)p 0.26( 12.03%)d 0.93( 42.38%)
  86. (0.00002) RY*( 9) O  4             s( 78.03%)p 0.11(  8.75%)d 0.17( 13.23%)
  87. (0.00001) RY*(10) O  4             s(  3.43%)p 2.81(  9.63%)d25.37( 86.94%)
  88. (0.00001) RY*(11) O  4             s(  9.59%)p 1.79( 17.14%)d 7.64( 73.27%)
  89. (0.00002) RY*(12) O  4             s(  2.19%)p 3.29(  7.19%)d41.45( 90.63%)
  90. (0.00000) RY*(13) O  4             s( 22.26%)p 0.53( 11.78%)d 2.96( 65.96%)
  91. (0.00001) RY*(14) O  4             s( 10.64%)p 0.49(  5.18%)d 7.92( 84.19%)
  92. (0.00612) RY*( 1) C  5             s( 21.79%)p 3.56( 77.58%)d 0.03(  0.63%)
                                         0.0000 -0.0031  0.4638  0.0513  0.0118
                                         0.0028  0.6841  0.0148 -0.0133 -0.4048
                                         0.0873 -0.0078 -0.1767  0.3235 -0.0161
                                         0.0102  0.0437  0.0605  0.0201
  93. (0.00212) RY*( 2) C  5             s(  7.02%)p12.21( 85.70%)d 1.04(  7.29%)
                                         0.0000  0.0028 -0.0195  0.2639 -0.0109
                                        -0.0048 -0.4321 -0.3513  0.0077 -0.4231
                                        -0.1528 -0.0021 -0.5801  0.0886  0.2049
                                         0.1133  0.0795  0.0745  0.0785
  94. (0.00152) RY*( 3) C  5             s( 28.65%)p 2.13( 61.15%)d 0.36( 10.20%)
                                         0.0000  0.0056 -0.3391  0.4141  0.0047
                                        -0.0067  0.2193  0.1895 -0.0096 -0.4657
                                         0.1123  0.0073  0.1576 -0.5225  0.0977
                                         0.1572 -0.1855 -0.1256 -0.1324
  95. (0.00129) RY*( 4) C  5             s( 11.85%)p 7.11( 84.24%)d 0.33(  3.91%)
                                         0.0000 -0.0015  0.3388 -0.0608  0.0074
                                         0.0065 -0.3780 -0.2261  0.0001 -0.4157
                                         0.1366 -0.0041  0.6568  0.1594  0.0720
                                        -0.0389 -0.0877  0.0102 -0.1569
  96. (0.00031) RY*( 5) C  5             s( 31.72%)p 1.46( 46.45%)d 0.69( 21.83%)
                                         0.0000 -0.0009  0.5534 -0.0175 -0.1030
                                        -0.0068 -0.1043  0.0243  0.0057  0.1072
                                         0.2031 -0.0123 -0.0667 -0.6289 -0.0355
                                         0.1994  0.2141  0.2875  0.2209
  97. (0.00020) RY*( 6) C  5             s(  1.82%)p43.50( 79.34%)d10.33( 18.84%)
                                         0.0000 -0.0028  0.1303 -0.0343 -0.0087
                                        -0.0077 -0.2871  0.7856  0.0029 -0.0396
                                         0.0927  0.0019 -0.1180  0.2640  0.2170
                                         0.3409 -0.0290  0.0042 -0.1555
  98. (0.00015) RY*( 7) C  5             s( 28.61%)p 1.13( 32.26%)d 1.37( 39.13%)
                                         0.0000 -0.0097 -0.2100  0.4639  0.1635
                                        -0.0027  0.0342 -0.0423 -0.0020  0.2046
                                         0.4001 -0.0174  0.1905  0.2847  0.1694
                                         0.0484  0.0753  0.5123  0.3037
  99. (0.00011) RY*( 8) C  5             s(  6.82%)p10.99( 75.00%)d 2.66( 18.18%)
                                         0.0000  0.0112  0.0322  0.1979 -0.1671
                                        -0.0004  0.0391  0.2028  0.0025 -0.0802
                                        -0.7794 -0.0085  0.3041  0.0300 -0.0127
                                         0.0270  0.1852  0.1898  0.3326
 100. (0.00011) RY*( 9) C  5             s(  0.88%)p33.07( 29.03%)d79.86( 70.10%)
                                         0.0000 -0.0008  0.0813  0.0174 -0.0432
                                        -0.0266  0.1851 -0.3478 -0.0064  0.3042
                                        -0.1612  0.0046  0.1149  0.0503  0.3686
                                         0.7046 -0.1588 -0.1690 -0.1216
 101. (0.00004) RY*(10) C  5             s( 13.45%)p 0.36(  4.90%)d 6.07( 81.64%)
 102. (0.00002) RY*(11) C  5             s( 43.39%)p 0.22(  9.61%)d 1.08( 47.00%)
 103. (0.00001) RY*(12) C  5             s(  2.49%)p 2.02(  5.04%)d37.10( 92.46%)
 104. (0.00001) RY*(13) C  5             s(  8.61%)p 0.47(  4.02%)d10.15( 87.37%)
 105. (0.00000) RY*(14) C  5             s( 92.91%)p 0.06(  5.99%)d 0.01(  1.10%)
 106. (0.00116) RY*( 1) H  6             s(100.00%)
                                        -0.0025  1.0000
 107. (0.00125) RY*( 1) H  7             s(100.00%)
                                        -0.0020  1.0000
 108. (0.00307) RY*( 1) H  8             s(100.00%)
                                        -0.0046  1.0000
 109. (0.02061) RY*( 1) C  9             s(  3.94%)p23.58( 92.81%)d 0.83(  3.26%)
                                         0.0000  0.0211  0.1935  0.0343  0.0175
                                         0.0368 -0.4124  0.0323 -0.0287  0.5896
                                         0.1051  0.0407 -0.6271 -0.0341  0.1381
                                        -0.1014  0.0217 -0.0254 -0.0456
 110. (0.01990) RY*( 2) C  9             s( 32.29%)p 1.67( 53.98%)d 0.43( 13.73%)
                                         0.0000  0.0474  0.5534  0.1081  0.0522
                                         0.0817 -0.4258  0.2166  0.0523 -0.5353
                                         0.1061 -0.0052  0.0336  0.0569  0.1905
                                        -0.0091  0.1980  0.2229 -0.1096
 111. (0.00598) RY*( 3) C  9             s(  1.20%)p 2.72(  3.28%)d79.27( 95.51%)
                                         0.0000 -0.0073  0.0734  0.0704  0.0406
                                        -0.0253  0.0590 -0.1152  0.0338  0.0191
                                         0.1014  0.0364  0.0237 -0.0418  0.3751
                                        -0.0082 -0.2224  0.2897  0.8252
 112. (0.00537) RY*( 4) C  9             s( 33.19%)p 1.12( 37.19%)d 0.89( 29.62%)
                                         0.0000 -0.0218 -0.1237  0.5571 -0.0759
                                         0.0026  0.3720  0.3396  0.0058  0.2435
                                         0.2079  0.0044  0.1080  0.0633  0.2781
                                        -0.0640  0.3385  0.2653 -0.1726
 113. (0.00283) RY*( 5) C  9             s(  2.58%)p 8.29( 21.37%)d29.50( 76.05%)
                                         0.0000  0.0032  0.1492  0.0502  0.0315
                                        -0.0108 -0.1687 -0.1293  0.0330  0.3194
                                         0.0196 -0.0064  0.2484 -0.0562 -0.5159
                                         0.4730  0.1313  0.5006  0.0526
 114. (0.00242) RY*( 6) C  9             s( 11.16%)p 5.61( 62.67%)d 2.34( 26.17%)
                                         0.0000  0.0045  0.3238  0.0763  0.0312
                                         0.0013 -0.1670 -0.1492  0.0124  0.3782
                                        -0.0464  0.0344  0.6552  0.0276  0.1259
                                        -0.3890 -0.2036 -0.2001 -0.1139
 115. (0.00137) RY*( 7) C  9             s( 45.81%)p 0.96( 43.79%)d 0.23( 10.40%)
                                         0.0000 -0.0234  0.6655 -0.0040 -0.1211
                                         0.0414  0.6122  0.0283  0.0038  0.0222
                                        -0.0656 -0.0070 -0.2359 -0.0040 -0.2268
                                        -0.0469 -0.2217  0.0014 -0.0351
 116. (0.00028) RY*( 8) C  9             s( 27.90%)p 1.38( 38.42%)d 1.21( 33.68%)
                                         0.0000  0.0115  0.1258  0.5129 -0.0015
                                         0.0042 -0.0091 -0.5013 -0.0092 -0.0637
                                        -0.3043 -0.0145 -0.0848  0.1694  0.0613
                                         0.2654  0.3104 -0.3891  0.1219
 117. (0.00017) RY*( 9) C  9             s( 38.64%)p 0.92( 35.42%)d 0.67( 25.94%)
                                         0.0000 -0.0171  0.1286 -0.3842  0.4711
                                         0.0137  0.1772  0.0652 -0.0034  0.1542
                                         0.2547 -0.0087  0.0883  0.4710  0.2467
                                         0.3759  0.1456 -0.1886 -0.0211
 118. (0.00012) RY*(10) C  9             s( 22.52%)p 1.93( 43.53%)d 1.51( 33.94%)
                                         0.0000  0.0004 -0.1282  0.4077  0.2064
                                        -0.0190 -0.1001 -0.0806 -0.0088 -0.1395
                                         0.4216 -0.0047 -0.1032  0.4588 -0.3310
                                        -0.1198 -0.4628  0.0024 -0.0364
 119. (0.00004) RY*(11) C  9             s( 10.86%)p 2.64( 28.65%)d 5.57( 60.49%)
 120. (0.00004) RY*(12) C  9             s(  5.45%)p14.19( 77.42%)d 3.14( 17.13%)
 121. (0.00002) RY*(13) C  9             s(  5.04%)p 6.51( 32.79%)d12.34( 62.17%)
 122. (0.00002) RY*(14) C  9             s( 58.99%)p 0.51( 29.86%)d 0.19( 11.15%)
 123. (0.00567) RY*( 1) O 10             s( 21.74%)p 3.57( 77.68%)d 0.03(  0.58%)
                                         0.0000  0.0004  0.4610 -0.0649  0.0260
                                        -0.0186  0.6441 -0.0172 -0.0063  0.5950
                                         0.0152 -0.0051 -0.0761 -0.0345  0.0527
                                        -0.0327  0.0196  0.0350 -0.0177
 124. (0.00203) RY*( 2) O 10             s(  0.68%)p99.99( 97.88%)d 2.12(  1.44%)
                                         0.0000  0.0005  0.0822 -0.0034 -0.0047
                                         0.0009  0.3283  0.0604 -0.0003 -0.5142
                                        -0.0522 -0.0033 -0.7723 -0.0611 -0.0466
                                         0.0199  0.0374 -0.0508 -0.0886
 125. (0.00091) RY*( 3) O 10             s( 63.49%)p 0.54( 34.58%)d 0.03(  1.93%)
                                         0.0000 -0.0017  0.7886 -0.1120  0.0205
                                        -0.0038 -0.1353  0.0679 -0.0045 -0.4362
                                         0.1320 -0.0009  0.3245 -0.0992 -0.0228
                                        -0.0599 -0.0558 -0.1094  0.0112
 126. (0.00059) RY*( 4) O 10             s( 35.16%)p 1.70( 59.61%)d 0.15(  5.23%)
                                         0.0000  0.0082  0.3470  0.4539  0.1587
                                        -0.0077 -0.5001  0.2519  0.0103  0.2897
                                        -0.1120 -0.0124 -0.3667  0.2265 -0.0567
                                         0.1018  0.0911  0.1711  0.0331
 127. (0.00018) RY*( 5) O 10             s( 41.46%)p 1.28( 53.26%)d 0.13(  5.28%)
                                         0.0000 -0.0011 -0.0647  0.6329  0.0993
                                        -0.0019  0.1164 -0.1829  0.0042 -0.0495
                                         0.5274 -0.0025  0.0661 -0.4479 -0.0648
                                        -0.0290  0.2146  0.0063  0.0406
 128. (0.00009) RY*( 6) O 10             s( 13.90%)p 4.08( 56.79%)d 2.11( 29.30%)
[...]
  23. CR ( 1) O10           112. RY*( 4) C 9              0.64   20.27    0.101
  23. CR ( 1) O10           179. BD*( 1) C 9- O11         0.92   19.32    0.123
  24. CR ( 1) O11           109. RY*( 1) C 9              2.37   19.68    0.194
  24. CR ( 1) O11           110. RY*( 2) C 9              2.73   19.64    0.208
  24. CR ( 1) O11           112. RY*( 4) C 9              0.61   20.27    0.100
  24. CR ( 1) O11           178. BD*( 1) C 9- O10         0.93   19.41    0.122
  25. CR ( 1) C12           165. RY*( 1) H13              0.55   10.82    0.069
  25. CR ( 1) C12           166. RY*( 1) H14              0.69   10.85    0.077
  25. CR ( 1) C12           171. BD*( 1) C 1- C12         1.17   10.10    0.108
  26. LP ( 1) O 2            36. RY*( 1) C 1             15.93    1.57    0.141
  26. LP ( 1) O 2            37. RY*( 2) C 1              0.54    1.80    0.028
  26. LP ( 1) O 2           169. BD*( 1) C 1- C 3         1.51    1.08    0.037
  26. LP ( 1) O 2           170. BD*( 1) C 1- C 9         0.97    1.01    0.029
  26. LP ( 1) O 2           171. BD*( 1) C 1- C12         1.65    0.68    0.033
  27. LP ( 2) O 2            38. RY*( 3) C 1              1.54    1.81    0.049
  27. LP ( 2) O 2            40. RY*( 5) C 1              1.42    1.91    0.048
  27. LP ( 2) O 2           169. BD*( 1) C 1- C 3        18.61    0.64    0.098
  27. LP ( 2) O 2           170. BD*( 1) C 1- C 9        18.33    0.57    0.091
  27. LP ( 2) O 2           174. BD*( 1) C 3- C 5         0.58    0.56    0.016
  27. LP ( 2) O 2           180. BD*( 2) C 9- O11         0.59    0.32    0.013
  28. LP ( 3) O 2            37. RY*( 2) C 1              1.24    1.36    0.041
  28. LP ( 3) O 2            38. RY*( 3) C 1              0.87    1.82    0.040
  28. LP ( 3) O 2            39. RY*( 4) C 1              0.95    1.30    0.035
  28. LP ( 3) O 2            40. RY*( 5) C 1              0.63    1.92    0.035
  28. LP ( 3) O 2            51. RY*( 2) O 2              0.93    0.80    0.027
  28. LP ( 3) O 2           168. BD*( 1) C 1- O 2        11.73    0.77    0.094
  28. LP ( 3) O 2           170. BD*( 1) C 1- C 9         0.69    0.58    0.019
  28. LP ( 3) O 2           171. BD*( 1) C 1- C12        94.36    0.25    0.139
  28. LP ( 3) O 2           173. BD*( 2) C 3- O 4         1.08    0.24    0.015
  29. LP ( 1) O 4            64. RY*( 1) C 3             17.22    1.49    0.143
  29. LP ( 1) O 4           169. BD*( 1) C 1- C 3         2.06    1.11    0.044
  29. LP ( 1) O 4           174. BD*( 1) C 3- C 5         2.23    1.04    0.043
  30. LP ( 2) O 4            65. RY*( 2) C 3              1.28    1.20    0.036
  30. LP ( 2) O 4            67. RY*( 4) C 3              1.83    1.87    0.054
  30. LP ( 2) O 4            74. RY*(11) C 3              0.73    1.23    0.028
  30. LP ( 2) O 4           169. BD*( 1) C 1- C 3        17.85    0.67    0.098
  30. LP ( 2) O 4           174. BD*( 1) C 3- C 5        18.58    0.60    0.095
  30. LP ( 2) O 4           175. BD*( 1) C 5- H 6         1.01    0.68    0.024
  31. LP ( 1) O10           109. RY*( 1) C 9             11.66    1.50    0.118
  31. LP ( 1) O10           110. RY*( 2) C 9              0.70    1.47    0.029
  31. LP ( 1) O10           112. RY*( 4) C 9              1.89    2.10    0.057
  31. LP ( 1) O10           170. BD*( 1) C 1- C 9         2.04    1.02    0.042
  31. LP ( 1) O10           179. BD*( 1) C 9- O11         3.12    1.15    0.055
  32. LP ( 2) O10           110. RY*( 2) C 9              1.75    1.01    0.039
  32. LP ( 2) O10           112. RY*( 4) C 9              0.88    1.65    0.035
  32. LP ( 2) O10           113. RY*( 5) C 9              0.58    2.31    0.034
  32. LP ( 2) O10           170. BD*( 1) C 1- C 9        18.78    0.57    0.093
  32. LP ( 2) O10           179. BD*( 1) C 9- O11        19.27    0.70    0.104
  32. LP ( 2) O10           180. BD*( 2) C 9- O11         6.89    0.33    0.045
  32. LP ( 2) O10           182. BD*( 1) C12- H14         1.17    0.70    0.026
  33. LP ( 3) O10           111. RY*( 3) C 9              2.75    2.35    0.080
  33. LP ( 3) O10           124. RY*( 2) O10              0.80    0.72    0.024
  33. LP ( 3) O10           178. BD*( 1) C 9- O10         2.49    0.78    0.043
  33. LP ( 3) O10           179. BD*( 1) C 9- O11         5.56    0.70    0.060
  33. LP ( 3) O10           180. BD*( 2) C 9- O11        67.89    0.33    0.134
  34. LP ( 1) O11           109. RY*( 1) C 9              5.44    1.51    0.081
  34. LP ( 1) O11           110. RY*( 2) C 9              6.59    1.47    0.088
  34. LP ( 1) O11           112. RY*( 4) C 9              1.81    2.11    0.055
  34. LP ( 1) O11           170. BD*( 1) C 1- C 9         1.51    1.03    0.036
  34. LP ( 1) O11           178. BD*( 1) C 9- O10         3.30    1.24    0.058
  35. LP ( 2) O11           109. RY*( 1) C 9              0.59    1.05    0.023
  35. LP ( 2) O11           110. RY*( 2) C 9              1.06    1.02    0.030
  35. LP ( 2) O11           112. RY*( 4) C 9              0.71    1.65    0.031
  35. LP ( 2) O11           113. RY*( 5) C 9              0.75    2.31    0.038
  35. LP ( 2) O11           170. BD*( 1) C 1- C 9        16.49    0.58    0.087
  35. LP ( 2) O11           171. BD*( 1) C 1- C12         2.31    0.25    0.023
  35. LP ( 2) O11           178. BD*( 1) C 9- O10        18.43    0.79    0.109


 NATURAL BOND ORBITALS (Summary):

                                                     Principal Delocalizations
           NBO                 Occupancy    Energy   (geminal,vicinal,remote)
 ===============================================================================
 Molecular unit  1  (C5H6O4)
   1. BD ( 1) C  1- O  2        1.98787    -0.64742  36(g),174(v),64(v),169(g)
                                                    179(v)
   2. BD ( 1) C  1- C  3        1.97574    -0.34101  178(v),151(v),177(v),78(v)
                                                    50(v),182(v),173(g),168(g)
                                                    93(v)
   3. BD ( 1) C  1- C  9        1.97132    -0.27478  172(v),123(v),137(v),65(v)
                                                    50(v),110(g)
   4. BD ( 1) C  1- C 12        1.69234     0.00584  173(v),180(v),51(v),179(v)
                                                    66(v),168(g),178(v)
   5. BD ( 1) C  3- O  4        1.99573    -0.72006  64(g),169(g),170(v),36(v)
                                                    175(v)
   6. BD ( 2) C  3- O  4        1.98918    -0.05485  173(g),171(v),176(v),182(r)
   7. BD ( 1) C  3- C  5        1.98945    -0.32548  168(v),78(v),37(v),175(g)
   8. BD ( 1) C  5- H  6        1.98787    -0.23267  172(v),67(v)
   9. BD ( 1) C  5- H  7        1.97892    -0.22890  173(v),169(v)
  10. BD ( 1) C  5- H  8        1.98792    -0.23352  169(v),173(v)
  11. BD ( 1) C  9- O 10        1.99576    -0.66092  109(g),179(g)
  12. BD ( 1) C  9- O 11        1.99108    -0.56288  180(g),168(v),110(g)
  13. BD ( 2) C  9- O 11        1.98437    -0.10532  180(g),171(v),179(g),124(v)
                                                    178(g),169(v)
  14. BD ( 1) C 12- H 13        1.99595    -0.20849  173(r)
  15. BD ( 1) C 12- H 14        1.98215    -0.19822
  16. BD ( 1) C 12- H 15        1.99248    -0.21990  173(r),171(g)
  17. CR ( 1) C  1              1.99891    -9.82337   172(v),110(v),65(v),174(v)
                                                    178(v),64(v)
  18. CR ( 1) O  2              1.99978   -18.52382   36(v),171(v)
  19. CR ( 1) C  3              1.99913    -9.83996   41(v),168(v),38(v)
  20. CR ( 1) O  4              1.99977   -18.55527   64(v),169(v),174(v)
  21. CR ( 1) C  5              1.99938    -9.77841   65(v),67(v),172(v)
  22. CR ( 1) C  9              1.99940    -9.84771   168(v)
  23. CR ( 1) O 10              1.99979   -18.54108   109(v),179(v),112(v)
  24. CR ( 1) O 11              1.99980   -18.54459   110(v),109(v),178(v),112(v)
  25. CR ( 1) C 12              1.99943    -9.77097   171(g),166(v),165(v),173(r)
  26. LP ( 1) O  2              1.97793    -0.35757   36(v),171(v),169(v),170(v)
                                                    37(v)
  27. LP ( 2) O  2              1.87545     0.08642   169(v),170(v),38(v),40(v)
                                                    180(r),174(r)
  28. LP ( 3) O  2              1.60066     0.07467   171(v),168(g),37(v),39(v)
                                                    51(g),173(r),38(v),170(v)
                                                    40(v)
  29. LP ( 1) O  4              1.97662    -0.38612   64(v),174(v),169(v)
  30. LP ( 2) O  4              1.88982     0.05300   174(v),169(v),67(v),65(v)
                                                    175(r),74(v)
  31. LP ( 1) O 10              1.97709    -0.37028   109(v),179(v),170(v),112(v)
                                                    110(v)
  32. LP ( 2) O 10              1.88686     0.08171   179(v),170(v),180(v),110(v)
                                                    182(r),112(v),113(v)
  33. LP ( 3) O 10              1.60575     0.08325   180(v),179(v),111(v),178(g)
                                                    124(g)
  34. LP ( 1) O 11              1.97757    -0.37665   110(v),109(v),178(v),112(v)
                                                    170(v)
  35. LP ( 2) O 11              1.88500     0.07940   178(v),170(v),171(r),110(v)
                                                    113(v),112(v),109(v)
  36. RY*( 1) C  1              0.01718     1.21292
  37. RY*( 2) C  1              0.00701     1.43810
  38. RY*( 3) C  1              0.00531     1.89954
  39. RY*( 4) C  1              0.00368     1.37048
  40. RY*( 5) C  1              0.00317     1.99615
  41. RY*( 6) C  1              0.00132     1.83725
  42. RY*( 7) C  1              0.00064     1.94625
  43. RY*( 8) C  1              0.00040     2.49284
  44. RY*( 9) C  1              0.00035     3.04434
  45. RY*(10) C  1              0.00026     1.05591
  46. RY*(11) C  1              0.00012     1.67944
  47. RY*(12) C  1              0.00010     1.45046
  48. RY*(13) C  1              0.00007     1.40508
  49. RY*(14) C  1              0.00003     1.75209
  50. RY*( 1) O  2              0.00412     0.98625
  51. RY*( 2) O  2              0.00291     0.87737
  52. RY*( 3) O  2              0.00078     1.05483
  53. RY*( 4) O  2              0.00029     1.11557
  54. RY*( 5) O  2              0.00016     1.94226
  55. RY*( 6) O  2              0.00010     1.58229
  56. RY*( 7) O  2              0.00010     1.64616
  57. RY*( 8) O  2              0.00004     2.58614
  58. RY*( 9) O  2              0.00002     2.18586
  59. RY*(10) O  2              0.00001     2.61250
  60. RY*(11) O  2              0.00002     2.29940
  61. RY*(12) O  2              0.00001     3.68424
  62. RY*(13) O  2              0.00001     2.24127
  63. RY*(14) O  2              0.00001     2.29317
  64. RY*( 1) C  3              0.01812     1.10119
  65. RY*( 2) C  3              0.00889     1.25199
  66. RY*( 3) C  3              0.00528     1.65290
  67. RY*( 4) C  3              0.00345     1.92606
  68. RY*( 5) C  3              0.00233     1.24170
  69. RY*( 6) C  3              0.00170     1.55777
  70. RY*( 7) C  3              0.00073     2.29994
  71. RY*( 8) C  3              0.00037     2.31933
  72. RY*( 9) C  3              0.00028     1.72862
  73. RY*(10) C  3              0.00019     1.25677
  74. RY*(11) C  3              0.00015     1.28522
  75. RY*(12) C  3              0.00008     2.26717
  76. RY*(13) C  3              0.00005     2.24386
  77. RY*(14) C  3              0.00002     2.73714
  78. RY*( 1) O  4              0.00514     0.89549
  79. RY*( 2) O  4              0.00243     0.88262
  80. RY*( 3) O  4              0.00039     1.67593
  81. RY*( 4) O  4              0.00032     0.80730
  82. RY*( 5) O  4              0.00021     1.42137
  83. RY*( 6) O  4              0.00013     1.59854
  84. RY*( 7) O  4              0.00008     1.67714
  85. RY*( 8) O  4              0.00003     2.72510
  86. RY*( 9) O  4              0.00002     2.86490
  87. RY*(10) O  4              0.00001     2.31877
  88. RY*(11) O  4              0.00001     2.50889
  89. RY*(12) O  4              0.00002     2.41880
  90. RY*(13) O  4              0.00000     2.54225
  91. RY*(14) O  4              0.00001     2.27618
  92. RY*( 1) C  5              0.00612     0.54371
  93. RY*( 2) C  5              0.00212     0.84516
  94. RY*( 3) C  5              0.00152     1.05029
  95. RY*( 4) C  5              0.00129     0.85533
  96. RY*( 5) C  5              0.00031     1.25084
  97. RY*( 6) C  5              0.00020     0.91672
  98. RY*( 7) C  5              0.00015     1.70961
  99. RY*( 8) C  5              0.00011     1.08967
 100. RY*( 9) C  5              0.00011     1.90466
 101. RY*(10) C  5              0.00004     2.12775
 102. RY*(11) C  5              0.00002     1.68908
 103. RY*(12) C  5              0.00001     2.40079
 104. RY*(13) C  5              0.00001     2.12890
 105. RY*(14) C  5              0.00000     4.16296
 106. RY*( 1) H  6              0.00116     1.09224
 107. RY*( 1) H  7              0.00125     1.03365
 108. RY*( 1) H  8              0.00307     1.02487
 109. RY*( 1) C  9              0.02061     1.13066
 110. RY*( 2) C  9              0.01990     1.09657
 111. RY*( 3) C  9              0.00598     2.43057
 112. RY*( 4) C  9              0.00537     1.73029
 113. RY*( 5) C  9              0.00283     2.38797
 114. RY*( 6) C  9              0.00242     1.45584
 115. RY*( 7) C  9              0.00137     1.45999
 116. RY*( 8) C  9              0.00028     1.99974
 117. RY*( 9) C  9              0.00017     2.67846
 118. RY*(10) C  9              0.00012     1.40281
 119. RY*(11) C  9              0.00004     1.84815
 120. RY*(12) C  9              0.00004     1.05006
 121. RY*(13) C  9              0.00002     1.85624
 122. RY*(14) C  9              0.00002     1.99129
 123. RY*( 1) O 10              0.00567     0.75577
 124. RY*( 2) O 10              0.00203     0.79966
 125. RY*( 3) O 10              0.00091     0.78598
 126. RY*( 4) O 10              0.00059     1.10513
 127. RY*( 5) O 10              0.00018     2.00304
 128. RY*( 6) O 10              0.00009     1.77259
 129. RY*( 7) O 10              0.00007     1.57131
 130. RY*( 8) O 10              0.00004     1.99217
 131. RY*( 9) O 10              0.00002     2.39446
 132. RY*(10) O 10              0.00001     2.23968
 133. RY*(11) O 10              0.00001     2.35419
 134. RY*(12) O 10              0.00001     2.49727
 135. RY*(13) O 10              0.00000     4.14881
 136. RY*(14) O 10              0.00001     2.25753
 137. RY*( 1) O 11              0.00561     0.74904
 138. RY*( 2) O 11              0.00210     0.80140
 139. RY*( 3) O 11              0.00084     0.97241
 140. RY*( 4) O 11              0.00045     1.04430
 141. RY*( 5) O 11              0.00015     1.85831
 142. RY*( 6) O 11              0.00008     1.73025
 143. RY*( 7) O 11              0.00006     1.67628
 144. RY*( 8) O 11              0.00003     1.82449
 145. RY*( 9) O 11              0.00002     2.43622
 146. RY*(10) O 11              0.00000     3.83585
 147. RY*(11) O 11              0.00000     2.26609
 148. RY*(12) O 11              0.00001     2.75340
 149. RY*(13) O 11              0.00001     2.38790
 150. RY*(14) O 11              0.00001     2.31778
 151. RY*( 1) C 12              0.01215     0.46356
 152. RY*( 2) C 12              0.00156     1.08016
 153. RY*( 3) C 12              0.00114     0.82116
 154. RY*( 4) C 12              0.00050     1.03117
 155. RY*( 5) C 12              0.00025     1.79246
 156. RY*( 6) C 12              0.00016     1.69653
 157. RY*( 7) C 12              0.00009     1.81463
 158. RY*( 8) C 12              0.00006     1.52694
 159. RY*( 9) C 12              0.00004     1.31341
 160. RY*(10) C 12              0.00003     1.44940
 161. RY*(11) C 12              0.00000     2.83094
 162. RY*(12) C 12              0.00000     2.10389
 163. RY*(13) C 12              0.00001     2.09998
 164. RY*(14) C 12              0.00001     2.29927
 165. RY*( 1) H 13              0.00195     1.05132
 166. RY*( 1) H 14              0.00172     1.08351
 167. RY*( 1) H 15              0.00180     1.07253
 168. BD*( 1) C  1- O  2        0.03324     0.84027
 169. BD*( 1) C  1- C  3        0.10492     0.72383  175(v),177(v),179(v),69(g)
                                                    174(g),172(g),170(g),78(v)
                                                    65(g),168(g),178(v),68(g)
                                                    50(v),38(g)
 170. BD*( 1) C  1- C  9        0.13707     0.65460  174(v),115(g),172(v),137(v)
                                                    123(v),169(g),119(g),178(g)
                                                    45(g),39(g)
 171. BD*( 1) C  1- C 12        0.37081     0.32635  173(v),180(v),151(g),51(v)
                                                    183(g),37(g),178(v),152(g)
                                                    48(g),179(v)
 172. BD*( 1) C  3- O  4        0.01594     0.84916
 173. BD*( 2) C  3- O  4        0.33644     0.31629  171(v),79(g),176(v),66(g)
                                                    68(g),177(v),172(g),151(r)
                                                    73(g)
 174. BD*( 1) C  3- C  5        0.06082     0.65124
 175. BD*( 1) C  5- H  6        0.00973     0.73156
 176. BD*( 1) C  5- H  7        0.00923     0.70687
 177. BD*( 1) C  5- H  8        0.01291     0.69510
 178. BD*( 1) C  9- O 10        0.05710     0.86774
 179. BD*( 1) C  9- O 11        0.11063     0.78105  180(g),139(g),110(g),182(r)
                                                    178(g),123(v),168(v),169(v)
                                                    125(v),124(v),118(g),121(g)
                                                    138(g),142(g),113(g),144(g)
                                                    137(g)
 180. BD*( 2) C  9- O 11        0.35148     0.40952  179(g),171(v),138(g),111(g)
                                                    124(v),168(v),110(g),169(v)
                                                    118(g),113(g),139(g)
 181. BD*( 1) C 12- H 13        0.00412     0.76063
 182. BD*( 1) C 12- H 14        0.01007     0.77874
 183. BD*( 1) C 12- H 15        0.01351     0.73444
          -------------------------------
                 Total Lewis   68.14624  ( 97.3518%)
           Valence non-Lewis    1.63803  (  2.3400%)
           Rydberg non-Lewis    0.21572  (  0.3082%)
          -------------------------------
               Total unit  1   70.00000  (100.0000%)
              Charge unit  1   -2.00000

 *******************************************************************************
Archival summary:
1\1\bt2600-04\SP\ProcedureUnspecified\6-31+G*\456(2-,1)\emavera\WedJun1411:15:012017WedJun1411:15:012017\0\\#,ProcedureUnspecified,6-31+G*,\\-2,1\C\O,1,1.26617\C,1,1.5017,2,121.943\O,3,1.25352,1,124.466,2,-2.48106,0\C,3,1.53584,1,118.145,2,171.912,0\H,5,1.09286,3,113.598,1,18.0948,0\H,5,1.09911,3,108.067,1,-101.565,0\H,5,1.10058,3,108.683,1,140.954,0\C,1,1.581,2,117.021,3,157.215,0\O,9,1.26259,1,119.51,2,76.7357,0\O,9,1.27083,1,113.492,2,-99.6496,0\C,1,2.07829,2,107.888,3,-84.219,0\H,12,1.09235,1,98.3004,2,32.8614,0\H,12,1.0924,1,91.5138,2,-81.6579,0\H,12,1.10058,1,126.448,2,159.194,0\\\@

 Total job time:  179.65s(wall), 149.80s(cpu) 
 Wed Jun 14 11:15:01 2017

        *************************************************************
        *                                                           *
        *  Thank you very much for using Q-Chem.  Have a nice day.  *
        *                                                           *
        *************************************************************


0 sent ACK to 0 
now end server 0 ... 
cleanup process ... done
