
Running Job 1 of 3 ts1050.qcin
qchem ts1050.qcin_22111.0 /tmp/ts1050.qcin/ 1
/programs/x86_64/lib/qchem-4.3.2/bin/mpi/mpirun_qchem -machinefile /var/spool/torque/aux//119432.vali -np 1 /programs/x86_64/lib/qchem-4.3.2/exe/qcprog.exe ts1050.qcin_22111.0 /tmp/ts1050.qcin/

Process 0 of 1 is on bt2600-16.csail.mit.edu - thread support 0
initial socket setup ...start
initial socket setup ...done 
now start server 0 ... 

cmd = ssh thor /programs/x86_64/lib/qchem-4.3.2/bin/get_hostid 1482282052 > /tmp/ts1050.qcin/lic.dat
                  Welcome to Q-Chem
     A Quantum Leap Into The Future Of Chemistry


 Q-Chem 4.3, Q-Chem, Inc., Pleasanton, CA (2015)

 Y. Shao,  Z. Gan,  E. Epifanovsky,  A. T. B. Gilbert,  M. Wormit,  
 J. Kussmann,  A. W. Lange,  A. Behn,  J. Deng,  X. Feng,  D. Ghosh,  
 M. Goldey,  P. R. Horn,  L. D. Jacobson,  I. Kaliman,  R. Z. Khaliullin,  
 T. Kus,  A. Landau,  J. Liu,  E. I. Proynov,  Y. M. Rhee,  R. M. Richard,  
 M. A. Rohrdanz,  R. P. Steele,  E. J. Sundstrom,  H. L. Woodcock III,  
 P. M. Zimmerman,  D. Zuev,  B. Albrecht,  E. Alguire,  B. Austin,  
 S. A. Baeppler,  G. J. O. Beran,  Y. A. Bernard,  E. Berquist,  
 K. Brandhorst,  K. B. Bravaya,  S. T. Brown,  D. Casanova,  C.-M. Chang,  
 Y. Chen,  S. H. Chien,  K. D. Closser,  D. L. Crittenden,  M. Diedenhofen,  
 R. A. DiStasio Jr.,  H. Do,  A. D. Dutoi,  R. G. Edgar,  P.-T. Fang,  
 S. Fatehi,  Q. Feng,  L. Fusti-Molnar,  A. Ghysels,  
 A. Golubeva-Zadorozhnaya,  J. Gomes,  A. Gunina,  M. W. D. Hanson-Heine,  
 P. H. P. Harbach,  A. W. Hauser,  E. G. Hohenstein,  Z. C. Holden,  K. Hui,  
 T.-C. Jagau,  H. Ji,  B. Kaduk,  K. Khistyaev,  Jaehoon Kim,  Jihan Kim,  
 R. A. King,  P. Klunzinger,  D. Kosenkov,  T. Kowalczyk,  C. M. Krauter,  
 K. U. Lao,  A. Laurent,  K. V. Lawler,  S. Lehtola,  S. V. Levchenko,  
 C. Y. Lin,  Y.-S. Lin,  F. Liu,  E. Livshits,  R. C. Lochan,  A. Luenser,  
 P. Manohar,  S. F. Manzer,  S.-P. Mao,  N. Mardirossian,  A. V. Marenich,  
 L. A. Martinez-Martinez,  S. A. Maurer,  N. J. Mayhall,  K. Nanda,  
 C. M. Oana,  R. Olivares-Amaya,  D. P. O'Neill,  J. A. Parkhill,  
 T. M. Perrine,  R. Peverati,  P. A. Pieniazek,  F. Plasser,  A. Prociuk,  
 D. R. Rehn,  E. Rosta,  N. J. Russ,  N. Sergueev,  S. M. Sharada,  
 S. Sharma,  D. W. Small,  A. Sodt,  T. Stauch,  T. Stein,  D. Stuck,  
 Y.-C. Su,  A. J. W. Thom,  T. Tsuchimochi,  L. Vogt,  O. Vydrov,  T. Wang,  
 M. A. Watson,  J. Wenzel,  A. White,  C. F. Williams,  V. Vanovschi,  
 S. Yeganeh,  S. R. Yost,  Z.-Q. You,  I. Y. Zhang,  X. Zhang,  Y. Zhao,  
 B. R. Brooks,  G. K. L. Chan,  D. M. Chipman,  C. J. Cramer,  
 W. A. Goddard III,  M. S. Gordon,  W. J. Hehre,  A. Klamt,  
 H. F. Schaefer III,  M. W. Schmidt,  C. D. Sherrill,  D. G. Truhlar,  
 A. Warshel,  X. Xu,  A. Aspuru-Guzik,  R. Baer,  A. T. Bell,  N. A. Besley,  
 J.-D. Chai,  A. Dreuw,  B. D. Dunietz,  T. R. Furlani,  S. R. Gwaltney,  
 C.-P. Hsu,  Y. Jung,  J. Kong,  D. S. Lambrecht,  W. Liang,  C. Ochsenfeld,  
 V. A. Rassolov,  L. V. Slipchenko,  J. E. Subotnik,  T. Van Voorhis,  
 J. M. Herbert,  A. I. Krylov,  P. M. W. Gill,  M. Head-Gordon

 Contributors to earlier versions of Q-Chem not listed above: 
 R. D. Adamson,  J. Baker,  E. F. C. Byrd,  A. K. Chakraborty,  C.-L. Cheng,  
 H. Dachsel,  R. J. Doerksen,  G. Hawkins,  A. Heyden,  S. Hirata,  
 G. Kedziora,  F. J. Keil,  C. Kelley,  P. P. Korambath,  W. Kurlancheek,  
 A. M. Lee,  M. S. Lee,  D. Liotard,  I. Lotan,  P. E. Maslen,  N. Nair,  
 D. Neuhauser,  R. Olson,  B. Peters,  J. Ritchie,  N. E. Schultz,  
 N. Shenvi,  A. C. Simmonett,  K. S. Thanthiriwatte,  Q. Wu,  W. Zhang

 Please cite Q-Chem as follows:
 Y. Shao et al., Mol. Phys. 113, 184-215 (2015)
 DOI: 10.1080/00268976.2014.952696

 Q-Chem 4.3.0 for Intel X86 Linux

 Parts of Q-Chem use Armadillo 5.200.1 (Boston Tea Smuggler).
 http://arma.sourceforge.net/

 Q-Chem begins on Mon Jun  5 14:35:46 2017  

Host: 
0

     Scratch files written to /tmp/ts1050.qcin//
 Oct1215 13750_ 19228  19214 4150   
 Parallel job on  1  processors
Processing $rem in /programs/x86_64/lib/qchem-4.3.2/config/preferences.
 MEM_TOTAL  2000 

Checking the input file for inconsistencies... 	...done.

--------------------------------------------------------------
User input:
--------------------------------------------------------------
$comment
Title
$end

$molecule
-2 1
C         3.500        -1.217          2.652
O         4.587        -1.422          2.054
O         3.267        -1.510          3.887
C         2.344        -0.610          1.814
C         1.955        -2.138          0.344
O         1.194        -0.348          2.371
C         2.463        -0.100          0.425
O         1.439         0.483         -0.147
C         3.838         0.002         -0.108
H         3.864         0.108         -1.197
H         4.649        -0.717          0.201
H         4.216         1.057          0.115
H         1.074        -2.041         -0.411
H         1.672        -2.674          1.292
H         2.942        -2.468         -0.050
$end


$solvent
CavityRadius    30
Dielectric     78.39
$end

$molecule
READ
$end

$rem
jobtype          FREQ
exchange         b3lyp
basis            6-31+G(d)
pdb_print 2
SOLVENT_METHOD ONSAGER
NBO TRUE
$end

--------------------------------------------------------------
 ----------------------------------------------------------------
             Standard Nuclear Orientation (Angstroms)
    I     Atom           X                Y                Z
 ----------------------------------------------------------------
    1      C       1.4937181321     0.2098857664     0.1069252800
    2      O       1.4451919358     1.4468099675    -0.1141216133
    3      O       2.5774513337    -0.4853352553     0.1938337304
    4      C       0.1370618588    -0.5320652070     0.2335013803
    5      C      -0.7316386575    -0.2940701063    -1.7249987460
    6      O       0.1072266215    -1.8115539799     0.4853174615
    7      C      -1.1975096657     0.1160329552     0.2831966336
    8      O      -2.2684258836    -0.6085840555     0.4922842755
    9      C      -1.1939190767     1.5885182431     0.4131665705
   10      H      -2.1608460233     2.0383957604     0.1672082421
   11      H      -0.3790260619     2.2221154859    -0.0392346988
   12      H      -1.2372116238     1.8355622344     1.5279459306
   13      H      -1.7366908003    -0.8093218611    -2.0078075497
   14      H       0.1723622823    -0.9196484940    -1.9648382376
   15      H      -0.5964153785     0.7723935524    -2.0125312301
 ----------------------------------------------------------------
 Molecular Point Group                 C1    NOp =  1
 Largest Abelian Subgroup              C1    NOp =  1
 Nuclear Repulsion Energy =   448.9588823991 hartrees
 There are       35 alpha and       35 beta electrons
 Requested basis set is 6-31+G(d)
 There are 57 shells and 183 basis functions

 Total QAlloc Memory Limit   2000 MB
 Mega-Array Size        61 MB
 MEM_STATIC part        62 MB

                       Distance Matrix (Angstroms)
             C (  1)   O (  2)   O (  3)   C (  4)   C (  5)   O (  6)
   O (  2)  1.257457
   O (  3)  1.290489  2.260538
   C (  4)  1.551460  2.397497  2.441159
   C (  5)  2.926112  3.219345  3.829958  2.155691
   O (  6)  2.480274  3.573012  2.818835  1.304375  2.809261
   C (  7)  2.698627  2.985415  3.823606  1.484447  2.101920  2.336403
   O (  8)  3.869383  4.287579  4.856623  2.420577  2.716059  2.662876
   C (  9)  3.036084  2.694999  4.309549  2.510112  2.886103  3.641247
   H ( 10)  4.086921  3.665055  5.368556  3.448484  3.326181  4.479672
   H ( 11)  2.752744  1.983552  4.015641  2.815358  3.049152  4.096594
   H ( 12)  3.481394  3.169038  4.660265  3.028180  3.920789  4.024431
   H ( 13)  3.993297  4.335961  4.854278  2.934499  1.164300  3.258861
   H ( 14)  2.704447  3.262725  3.260820  2.232524  1.125206  2.608256
   H ( 15)  3.029384  2.868267  4.064893  2.698938  1.112792  3.662123
             C (  7)   O (  8)   C (  9)   H ( 10)   H ( 11)   H ( 12)
   O (  8)  1.309828
   C (  9)  1.478214  2.447056
   H ( 10)  2.153358  2.669035  1.094456
   H ( 11)  2.282424  3.444591  1.127015  1.803123
   H ( 12)  2.123148  2.847780  1.142645  1.657060  1.828103
   H ( 13)  2.528972  2.563883  3.450414  3.608337  3.861107  4.443697
   H ( 14)  2.828930  3.477306  3.716521  4.328915  3.725944  4.666650
   H ( 15)  2.462212  3.313128  2.628132  2.966727  2.458221  3.751790
             H ( 13)   H ( 14)
   H ( 14)  1.912721
   H ( 15)  1.949891  1.859113
 
 A cutoff of  1.0D-11 yielded   1554 shell pairs
 There are     16616 function pairs
 
 -------------------------------------------------------
 OpenMP Integral Computing Module                       
 Release: version 1.0, May 2013, Q-Chem Inc. Pittsburgh 
 -------------------------------------------------------
 Integral Job Info:
 Integral job number is                      11
 Integral operator is                         1
 short-range coefficients                     0
 long-range coefficients              100000000
 Omega coefficients                           0
 if combine SR and LR in K                    0
 Integral screening is                        0
 Integral computing path is                   2
 max size of driver memory is            800000
 size of driver memory is                593474
 size of scratch memory is              2260544
 max col of scratch BK array               1296
 max len of scratch array in speh3          155
 max len of scratch index in speh4           18
 max int batch size is                      520
 min int batch size is                       52
 fixed nKL is                                52
 max L of basis functions is                  2
 order of int derivative is                   0
 number of shells is                         57
 number of basis is                         183
 number of cartesian basis is               183
 number of contracted shell pairs          1554
 number of primitive shell pairs           5377
 maxK2 (contraction) of shell pair           36
 max number of K2 of shell pair               1
 max number of CS2 of shell pair            196
 max number of PS2 of shell pair           1176
 mem total for path MDJ                   45544
 -------------------------------------------------------
 Smallest overlap matrix eigenvalue = 1.59E-05
 Placing solute cavity origin at the center of mass
 Center of Onsager solute cavity (Angst): (   0.045236,  -0.039160,   0.032993)
 Solvent multipole matrices computed through 15th order
 Guess from superposition of atomic densities
 Warning:  Energy on first SCF cycle will be non-variational
 A restricted hybrid HF-DFT SCF calculation will be
 performed using Pulay DIIS extrapolation
 Kirkwood-Onsager solvation model will be applied
 Exchange:     0.2000 Hartree-Fock + 0.0800 Slater + 0.7200 B88
 Correlation:  0.1900 VWN1RPA + 0.8100 LYP
 Using SG-1 standard quadrature grid
 SCF converges when DIIS error is below 1.0E-08
 Kirkwood-Onsager SCRF: 
 Maximum multipole order     = 15
 Solvent dielectric constant = 78.3900
 Cavity radius               = 56.6917 bohr
 Born term (E_born)          = -0.03482849 a.u. = -21.8552 kcal/mol
 CPU 0.00 s  wall 0.00 s
 Inaccurate integrated density:
   Number of electrons =    70
   Numerical integral  =    68.000252291279
   Relative error      =    -2.8567824410 %
 CPU 4.85 s  wall 4.85 s
 ---------------------------------------
  Cycle       Energy         DIIS Error
 ---------------------------------------
    1    -496.0151353101      4.69E-02
 CPU 0.00 s  wall 0.00 s
 CPU 5.34 s  wall 5.34 s
    2    -494.5523078903      1.07E-02
 CPU 0.00 s  wall 0.00 s
 CPU 5.35 s  wall 5.35 s
    3    -490.2618472725      2.99E-02
 CPU 0.00 s  wall 0.00 s
 CPU 5.32 s  wall 5.32 s
    4    -494.7144437492      7.97E-03
 CPU 0.00 s  wall 0.00 s
 CPU 5.33 s  wall 5.33 s
    5    -494.9674020133      1.61E-03
 CPU 0.00 s  wall 0.00 s
 CPU 5.28 s  wall 5.28 s
    6    -494.9714546410      1.51E-03
 CPU 0.00 s  wall 0.00 s
 CPU 5.25 s  wall 5.25 s
    7    -494.9789341486      5.68E-04
 CPU 0.00 s  wall 0.00 s
 CPU 5.20 s  wall 5.21 s
    8    -494.9798318604      2.39E-04
 CPU 0.00 s  wall 0.00 s
 CPU 5.17 s  wall 5.17 s
    9    -494.9800333282      5.64E-05
 CPU 0.00 s  wall 0.00 s
 CPU 5.15 s  wall 5.15 s
   10    -494.9800445313      2.59E-05
 CPU 0.00 s  wall 0.00 s
 CPU 5.06 s  wall 5.06 s
   11    -494.9800470472      5.43E-06
 CPU 0.00 s  wall 0.00 s
 CPU 4.98 s  wall 4.98 s
   12    -494.9800471118      3.85E-06
 CPU 0.00 s  wall 0.00 s
 CPU 4.91 s  wall 4.91 s
   13    -494.9800471623      1.02E-06
 CPU 0.00 s  wall 0.00 s
 CPU 4.81 s  wall 4.81 s
   14    -494.9800471653      3.27E-07
 CPU 0.00 s  wall 0.00 s
 CPU 4.70 s  wall 4.70 s
   15    -494.9800471668      9.90E-08
 CPU 0.00 s  wall 0.00 s
 CPU 4.61 s  wall 4.61 s
   16    -494.9800471659      3.38E-08
 CPU 0.00 s  wall 0.00 s
 CPU 4.41 s  wall 4.41 s
   17    -494.9800471656      8.10E-09 Convergence criterion met
 ---------------------------------------
 SCF time:  CPU 205.27 s  wall 204.85 s
 SCF   energy in the final basis set = -494.9800471656
 Total energy in the final basis set = -494.9800471656
 
 --------------------------------------------------------------
 
                    Orbital Energies (a.u.)
 --------------------------------------------------------------
 
 Alpha MOs
 -- Occupied --
-18.796 -18.792 -18.789 -18.785  -9.972  -9.961  -9.946  -9.906
 -9.904  -0.717  -0.674  -0.639  -0.619  -0.462  -0.391  -0.338
 -0.258  -0.182  -0.153  -0.135  -0.126  -0.118  -0.107  -0.099
 -0.081  -0.079  -0.062  -0.044   0.021   0.041   0.055   0.063
  0.083   0.097   0.110
 -- Virtual --
  0.229   0.238   0.268   0.272   0.281   0.285   0.297   0.301
  0.307   0.314   0.332   0.338   0.339   0.345   0.350   0.365
  0.368   0.389   0.404   0.410   0.415   0.450   0.460   0.467
  0.488   0.492   0.504   0.527   0.531   0.536   0.554   0.563
  0.568   0.573   0.581   0.587   0.592   0.599   0.607   0.614
  0.619   0.626   0.643   0.663   0.678   0.681   0.693   0.712
  0.737   0.775   0.818   0.894   0.940   0.959   0.988   1.010
  1.031   1.052   1.065   1.092   1.123   1.151   1.186   1.200
  1.212   1.227   1.259   1.261   1.333   1.344   1.370   1.389
  1.405   1.427   1.476   1.492   1.543   1.567   1.576   1.580
  1.626   1.642   1.656   1.663   1.671   1.686   1.688   1.695
  1.721   1.763   1.780   1.791   1.808   1.858   1.935   1.973
  2.002   2.025   2.047   2.064   2.086   2.111   2.163   2.169
  2.173   2.185   2.221   2.250   2.260   2.290   2.316   2.327
  2.389   2.404   2.440   2.453   2.483   2.495   2.538   2.563
  2.577   2.608   2.664   2.685   2.745   2.770   2.842   2.846
  2.900   2.999   3.035   3.060   3.188   3.314   3.370   3.433
  3.470   3.529   3.577   4.458   4.507   4.577   4.641   4.716
  4.816   4.904   4.938   5.246
 --------------------------------------------------------------
 
          Ground-State Mulliken Net Atomic Charges

     Atom                 Charge (a.u.)
  ----------------------------------------
      1 C                     0.526248
      2 O                    -0.613248
      3 O                    -0.631412
      4 C                    -0.123801
      5 C                    -0.811377
      6 O                    -0.530577
      7 C                     0.455508
      8 O                    -0.593950
      9 C                    -0.843128
     10 H                     0.161361
     11 H                     0.262827
     12 H                     0.161196
     13 H                     0.178078
     14 H                     0.213807
     15 H                     0.188468
  ----------------------------------------
  Sum of atomic charges =    -2.000000

 -----------------------------------------------------------------
                    Cartesian Multipole Moments
 -----------------------------------------------------------------
    Charge (ESU x 10^10)
                -9.6064
    Dipole Moment (Debye)
         X      -2.0735      Y       3.4099      Z       0.0324
       Tot       3.9910
    Quadrupole Moments (Debye-Ang)
        XX    -106.2400     XY      -4.9452     YY     -81.4098
        XZ       0.7444     YZ       3.8919     ZZ     -70.5387
    Octopole Moments (Debye-Ang^2)
       XXX       1.5278    XXY       1.9069    XYY      -2.7411
       YYY      -5.7179    XXZ      -4.6150    XYZ       0.7373
       YYZ      -0.6077    XZZ      16.8877    YZZ      -0.4960
       ZZZ      46.8750
    Hexadecapole Moments (Debye-Ang^3)
      XXXX   -1201.7241   XXXY      -0.7302   XXYY    -273.8991
      XYYY       0.6022   YYYY    -567.4088   XXXZ       6.7441
      XXYZ       7.7004   XYYZ       0.1979   YYYZ       0.9700
      XXZZ    -224.1714   XYZZ       0.7026   YYZZ    -148.0301
      XZZZ     -35.4401   YZZZ     -11.9324   ZZZZ    -445.4971
 -----------------------------------------------------------------

 Begin NBO analysis for the ground state 


 *********************************** NBO 5.0 ***********************************
             N A T U R A L   A T O M I C   O R B I T A L   A N D
          N A T U R A L   B O N D   O R B I T A L   A N A L Y S I S
 *******************************************************************************
  (c) Copyright 1996-2002 Board of Regents of the University of Wisconsin System
      on behalf of the Theoretical Chemistry Institute.  All Rights Reserved.

          Cite this program as:

          NBO 5.0.  E. D. Glendening, J. K. Badenhoop, A. E. Reed,
          J. E. Carpenter, J. A. Bohmann, C. M. Morales, and F. Weinhold
          (Theoretical Chemistry Institute, University of Wisconsin,
          Madison, WI, 2001); http://www.chem.wisc.edu/~nbo5

       /PRINT  / : Print level set to  1
  This is a closed-shell NBO calculation

 Job title: Starting NBO analysis.                                          

 Storage needed:      168297 in NPA,      134749 in NBO (     7716758 available)


 NATURAL POPULATIONS:  Natural atomic orbital occupancies 
                                                          
  NAO Atom No lang   Type(AO)    Occupancy      Energy    
 ---------------------------------------------------------
   1    C  1  s      Cor( 1s)     1.99936      -9.85581
   2    C  1  s      Val( 2s)     0.79912       0.17571
   3    C  1  s      Ryd( 3s)     0.01241       1.14726
   4    C  1  s      Ryd( 4s)     0.00247       1.58865
   5    C  1  s      Ryd( 5s)     0.00027       3.71822
   6    C  1  px     Val( 2p)     0.87172       0.30161
   7    C  1  px     Ryd( 4p)     0.01228       1.12131
   8    C  1  px     Ryd( 3p)     0.00160       0.72199
   9    C  1  py     Val( 2p)     0.77111       0.32884
  10    C  1  py     Ryd( 4p)     0.01837       1.15003
  11    C  1  py     Ryd( 3p)     0.00083       0.60637
  12    C  1  pz     Val( 2p)     0.78555       0.22018
  13    C  1  pz     Ryd( 4p)     0.00258       0.97584
  14    C  1  pz     Ryd( 3p)     0.00058       0.47945
  15    C  1  dxy    Ryd( 3d)     0.00402       2.87664
  16    C  1  dxz    Ryd( 3d)     0.00130       2.32193
  17    C  1  dyz    Ryd( 3d)     0.00253       2.48078
  18    C  1  dx2y2  Ryd( 3d)     0.00395       2.83885
  19    C  1  dz2    Ryd( 3d)     0.00051       2.64755
 
  20    O  2  s      Cor( 1s)     1.99978     -18.54852
  21    O  2  s      Val( 2s)     1.72190      -0.56193
  22    O  2  s      Ryd( 3s)     0.00303       0.89498
  23    O  2  s      Ryd( 4s)     0.00045       2.37288
  24    O  2  s      Ryd( 5s)     0.00012       4.15153
  25    O  2  px     Val( 2p)     1.88497       0.07029
  26    O  2  px     Ryd( 3p)     0.00498       0.95229
  27    O  2  px     Ryd( 4p)     0.00022       1.45536
  28    O  2  py     Val( 2p)     1.57580       0.03451
  29    O  2  py     Ryd( 3p)     0.00116       0.99054
  30    O  2  py     Ryd( 4p)     0.00028       1.68338
  31    O  2  pz     Val( 2p)     1.60003       0.07018
  32    O  2  pz     Ryd( 3p)     0.00211       0.76492
  33    O  2  pz     Ryd( 4p)     0.00007       1.37909
  34    O  2  dxy    Ryd( 3d)     0.00267       2.47456
  35    O  2  dxz    Ryd( 3d)     0.00014       2.17733
  36    O  2  dyz    Ryd( 3d)     0.00297       2.39003
  37    O  2  dx2y2  Ryd( 3d)     0.00316       2.70511
  38    O  2  dz2    Ryd( 3d)     0.00107       2.38747
 
  39    O  3  s      Cor( 1s)     1.99982     -18.55189
  40    O  3  s      Val( 2s)     1.74261      -0.55161
  41    O  3  s      Ryd( 3s)     0.00150       1.01053
  42    O  3  s      Ryd( 4s)     0.00028       2.31245
  43    O  3  s      Ryd( 5s)     0.00005       4.19894
  44    O  3  px     Val( 2p)     1.63367       0.06673
  45    O  3  px     Ryd( 3p)     0.00180       0.91716
  46    O  3  px     Ryd( 4p)     0.00011       1.59333
  47    O  3  py     Val( 2p)     1.79527       0.07952
  48    O  3  py     Ryd( 3p)     0.00300       0.81070
  49    O  3  py     Ryd( 4p)     0.00014       1.56003
  50    O  3  pz     Val( 2p)     1.60492       0.08834
  51    O  3  pz     Ryd( 3p)     0.00195       0.73660
  52    O  3  pz     Ryd( 4p)     0.00003       1.41788
  53    O  3  dxy    Ryd( 3d)     0.00272       2.69166
  54    O  3  dxz    Ryd( 3d)     0.00197       2.30537
  55    O  3  dyz    Ryd( 3d)     0.00076       2.23799
  56    O  3  dx2y2  Ryd( 3d)     0.00266       2.54441
  57    O  3  dz2    Ryd( 3d)     0.00079       2.39721
 
  58    C  4  s      Cor( 1s)     1.99887      -9.82370
  59    C  4  s      Val( 2s)     0.95238       0.09612
  60    C  4  s      Ryd( 4s)     0.00903       1.78462
  61    C  4  s      Ryd( 5s)     0.00066       3.02280
  62    C  4  s      Ryd( 3s)     0.00017       1.06196
  63    C  4  px     Val( 2p)     1.06201       0.24332
  64    C  4  px     Ryd( 4p)     0.00463       1.30494
  65    C  4  px     Ryd( 3p)     0.00061       0.68897
  66    C  4  py     Val( 2p)     0.84428       0.27684
  67    C  4  py     Ryd( 4p)     0.01747       1.24930
  68    C  4  py     Ryd( 3p)     0.00072       0.66868
  69    C  4  pz     Val( 2p)     0.80486       0.20659
  70    C  4  pz     Ryd( 4p)     0.00251       1.04493
  71    C  4  pz     Ryd( 3p)     0.00129       0.59346
  72    C  4  dxy    Ryd( 3d)     0.00339       2.70387
  73    C  4  dxz    Ryd( 3d)     0.00073       2.22877
  74    C  4  dyz    Ryd( 3d)     0.00176       2.38974
  75    C  4  dx2y2  Ryd( 3d)     0.00147       2.80041
  76    C  4  dz2    Ryd( 3d)     0.00094       2.60168
 
  77    C  5  s      Cor( 1s)     1.99952      -9.80446
  78    C  5  s      Val( 2s)     1.25856      -0.05148
  79    C  5  s      Ryd( 3s)     0.01696       0.81330
  80    C  5  s      Ryd( 4s)     0.00047       1.53886
  81    C  5  s      Ryd( 5s)     0.00002       3.91566
  82    C  5  px     Val( 2p)     1.21888       0.19929
  83    C  5  px     Ryd( 3p)     0.00305       0.60797
  84    C  5  px     Ryd( 4p)     0.00034       0.83821
  85    C  5  py     Val( 2p)     1.21089       0.20759
  86    C  5  py     Ryd( 3p)     0.00431       0.56282
  87    C  5  py     Ryd( 4p)     0.00045       0.83780
  88    C  5  pz     Val( 2p)     1.10354       0.17236
  89    C  5  pz     Ryd( 3p)     0.01886       0.65603
  90    C  5  pz     Ryd( 4p)     0.00079       0.89553
  91    C  5  dxy    Ryd( 3d)     0.00117       2.40074
  92    C  5  dxz    Ryd( 3d)     0.00064       2.28026
  93    C  5  dyz    Ryd( 3d)     0.00067       2.18294
  94    C  5  dx2y2  Ryd( 3d)     0.00107       2.36988
  95    C  5  dz2    Ryd( 3d)     0.00069       2.35848
 
  96    O  6  s      Cor( 1s)     1.99981     -18.53711
  97    O  6  s      Val( 2s)     1.72651      -0.54793
  98    O  6  s      Ryd( 3s)     0.00151       1.40774
  99    O  6  s      Ryd( 4s)     0.00019       2.33600
 100    O  6  s      Ryd( 5s)     0.00005       3.96343
 101    O  6  px     Val( 2p)     1.90025       0.09411
 102    O  6  px     Ryd( 3p)     0.00354       0.99969
 103    O  6  px     Ryd( 4p)     0.00014       1.42851
 104    O  6  py     Val( 2p)     1.53514       0.06395
 105    O  6  py     Ryd( 3p)     0.00073       1.15603
 106    O  6  py     Ryd( 4p)     0.00018       1.40404
 107    O  6  pz     Val( 2p)     1.54583       0.09618
 108    O  6  pz     Ryd( 3p)     0.00257       0.93658
 109    O  6  pz     Ryd( 4p)     0.00013       1.32242
 110    O  6  dxy    Ryd( 3d)     0.00219       2.50575
 111    O  6  dxz    Ryd( 3d)     0.00012       2.20291
 112    O  6  dyz    Ryd( 3d)     0.00244       2.41671
 113    O  6  dx2y2  Ryd( 3d)     0.00254       2.72580
 114    O  6  dz2    Ryd( 3d)     0.00093       2.40398
 
 115    C  7  s      Cor( 1s)     1.99894      -9.83101
 116    C  7  s      Val( 2s)     0.87063       0.11635
 117    C  7  s      Ryd( 3s)     0.00588       1.52143
 118    C  7  s      Ryd( 4s)     0.00127       1.94334
 119    C  7  s      Ryd( 5s)     0.00009       3.65035
 120    C  7  px     Val( 2p)     0.93541       0.25313
 121    C  7  px     Ryd( 4p)     0.01458       1.07079
 122    C  7  px     Ryd( 3p)     0.00203       0.69605
 123    C  7  py     Val( 2p)     0.97784       0.24174
 124    C  7  py     Ryd( 4p)     0.01057       1.20853
 125    C  7  py     Ryd( 3p)     0.00095       0.62572
 126    C  7  pz     Val( 2p)     0.81663       0.20266
 127    C  7  pz     Ryd( 4p)     0.00424       1.01979
 128    C  7  pz     Ryd( 3p)     0.00170       0.56549
 129    C  7  dxy    Ryd( 3d)     0.00156       2.71514
 130    C  7  dxz    Ryd( 3d)     0.00182       2.31885
 131    C  7  dyz    Ryd( 3d)     0.00071       2.29158
 132    C  7  dx2y2  Ryd( 3d)     0.00323       2.75437
 133    C  7  dz2    Ryd( 3d)     0.00117       2.58440
 
 134    O  8  s      Cor( 1s)     1.99981     -18.54138
 135    O  8  s      Val( 2s)     1.72551      -0.55561
 136    O  8  s      Ryd( 3s)     0.00077       1.48409
 137    O  8  s      Ryd( 4s)     0.00021       2.50799
 138    O  8  s      Ryd( 5s)     0.00006       3.61107
 139    O  8  px     Val( 2p)     1.63372       0.06461
 140    O  8  px     Ryd( 3p)     0.00198       0.93490
 141    O  8  px     Ryd( 4p)     0.00023       1.53971
 142    O  8  py     Val( 2p)     1.77232       0.07594
 143    O  8  py     Ryd( 3p)     0.00276       0.88228
 144    O  8  py     Ryd( 4p)     0.00026       1.48209
 145    O  8  pz     Val( 2p)     1.64301       0.08491
 146    O  8  pz     Ryd( 3p)     0.00288       0.81936
 147    O  8  pz     Ryd( 4p)     0.00020       1.40800
 148    O  8  dxy    Ryd( 3d)     0.00230       2.68232
 149    O  8  dxz    Ryd( 3d)     0.00150       2.34314
 150    O  8  dyz    Ryd( 3d)     0.00097       2.25453
 151    O  8  dx2y2  Ryd( 3d)     0.00226       2.52031
 152    O  8  dz2    Ryd( 3d)     0.00080       2.38484
 
 153    C  9  s      Cor( 1s)     1.99927      -9.76572
 154    C  9  s      Val( 2s)     1.11191       0.00937
 155    C  9  s      Ryd( 3s)     0.00136       0.96335
 156    C  9  s      Ryd( 4s)     0.00044       1.75685
 157    C  9  s      Ryd( 5s)     0.00003       4.20259
 158    C  9  px     Val( 2p)     1.24821       0.19240
 159    C  9  px     Ryd( 3p)     0.00405       0.70517
 160    C  9  px     Ryd( 4p)     0.00075       0.80195
 161    C  9  py     Val( 2p)     1.14581       0.19085
 162    C  9  py     Ryd( 3p)     0.00122       0.54321
 163    C  9  py     Ryd( 4p)     0.00087       0.73099
 164    C  9  pz     Val( 2p)     1.22113       0.17643
 165    C  9  pz     Ryd( 3p)     0.00217       0.64209
 166    C  9  pz     Ryd( 4p)     0.00068       0.76470
 167    C  9  dxy    Ryd( 3d)     0.00116       2.42013
 168    C  9  dxz    Ryd( 3d)     0.00040       2.17465
 169    C  9  dyz    Ryd( 3d)     0.00050       2.20332
 170    C  9  dx2y2  Ryd( 3d)     0.00112       2.47853
 171    C  9  dz2    Ryd( 3d)     0.00149       2.43252
 
 172    H 10  s      Val( 1s)     0.80095       0.33410
 173    H 10  s      Ryd( 2s)     0.00354       1.02826
 
 174    H 11  s      Val( 1s)     0.71605       0.37037
 175    H 11  s      Ryd( 2s)     0.00129       1.13040
 
 176    H 12  s      Val( 1s)     0.78310       0.29550
 177    H 12  s      Ryd( 2s)     0.00134       1.06995
 
 178    H 13  s      Val( 1s)     0.78086       0.31569
 179    H 13  s      Ryd( 2s)     0.00176       1.07232
 
 180    H 14  s      Val( 1s)     0.76598       0.35031
 181    H 14  s      Ryd( 2s)     0.00194       1.08798
 
 182    H 15  s      Val( 1s)     0.79515       0.34563
 183    H 15  s      Ryd( 2s)     0.00169       1.08355
 
   1 low occupancy (<1.9990e) core orbital  found on  C  4
   1 low occupancy (<1.9990e) core orbital  found on  C  7
 
     Population inversion found on atom  C  1
     Population inversion found on atom  C  4
     Population inversion found on atom  C  7


 Summary of Natural Population Analysis:

                                     Natural Population
             Natural    ---------------------------------------------
  Atom No    Charge        Core      Valence    Rydberg      Total
 --------------------------------------------------------------------
    C  1    0.70944      1.99936     3.22750    0.06370     5.29056
    O  2   -0.80490      1.99978     6.78270    0.02242     8.80490
    O  3   -0.79404      1.99982     6.77647    0.01776     8.79404
    C  4    0.29222      1.99887     3.66353    0.04538     5.70778
    C  5   -0.84087      1.99952     4.79186    0.04949     6.84087
    O  6   -0.72482      1.99981     6.70773    0.01727     8.72482
    C  7    0.35074      1.99894     3.60051    0.04981     5.64926
    O  8   -0.79155      1.99981     6.77456    0.01717     8.79155
    C  9   -0.74257      1.99927     4.72707    0.01623     6.74257
    H 10    0.19551      0.00000     0.80095    0.00354     0.80449
    H 11    0.28266      0.00000     0.71605    0.00129     0.71734
    H 12    0.21555      0.00000     0.78310    0.00134     0.78445
    H 13    0.21738      0.00000     0.78086    0.00176     0.78262
    H 14    0.23208      0.00000     0.76598    0.00194     0.76792
    H 15    0.20316      0.00000     0.79515    0.00169     0.79684
 ====================================================================
 * Total * -2.00000     17.99518    51.69403    0.31079    70.00000

                                 Natural Population      
 --------------------------------------------------------
   Core                      17.99518 ( 99.9732% of  18)
   Valence                   51.69403 ( 99.4116% of  52)
   Natural Minimal Basis     69.68921 ( 99.5560% of  70)
   Natural Rydberg Basis      0.31079 (  0.4440% of  70)
 --------------------------------------------------------

    Atom No         Natural Electron Configuration
 ----------------------------------------------------------------------------
      C  1      [core]2s( 0.80)2p( 2.43)3s( 0.01)3d( 0.01)4p( 0.03)
      O  2      [core]2s( 1.72)2p( 5.06)3p( 0.01)3d( 0.01)
      O  3      [core]2s( 1.74)2p( 5.03)3p( 0.01)3d( 0.01)
      C  4      [core]2s( 0.95)2p( 2.71)4s( 0.01)3d( 0.01)4p( 0.02)
      C  5      [core]2s( 1.26)2p( 3.53)3s( 0.02)3p( 0.03)
      O  6      [core]2s( 1.73)2p( 4.98)3p( 0.01)3d( 0.01)
      C  7      [core]2s( 0.87)2p( 2.73)3s( 0.01)3d( 0.01)4p( 0.03)
      O  8      [core]2s( 1.73)2p( 5.05)3p( 0.01)3d( 0.01)
      C  9      [core]2s( 1.11)2p( 3.62)3p( 0.01)
      H 10            1s( 0.80)
      H 11            1s( 0.72)
      H 12            1s( 0.78)
      H 13            1s( 0.78)
      H 14            1s( 0.77)
      H 15            1s( 0.80)


 NATURAL BOND ORBITAL ANALYSIS:

                       Occupancies       Lewis Structure    Low   High
           Occ.    -------------------  -----------------   occ   occ
  Cycle   Thresh.   Lewis   Non-Lewis     CR  BD  3C  LP    (L)   (NL)   Dev
 =============================================================================
   1(1)    1.90    67.39143   2.60857      9  18   0   8     6      6    0.45
   2(2)    1.90    67.36527   2.63473      9  18   0   8     7      7    0.47
   3(3)    1.90    67.17153   2.82847      9  19   0   7     7      6    0.41
   4(4)    1.90    67.17153   2.82847      9  19   0   7     7      6    0.41
   5(5)    1.90    65.44241   4.55759      9  20   0   6     8      7    0.47
   6(6)    1.90    67.17153   2.82847      9  19   0   7     7      6    0.41
   7(7)    1.90    67.17153   2.82847      9  19   0   7     7      6    0.41
   8(8)    1.90    65.44241   4.55759      9  20   0   6     8      7    0.47
   9(9)    1.90    67.17153   2.82847      9  19   0   7     7      6    0.41
  10(1)    1.80    68.04567   1.95433      9  16   0  10     2      4    0.45
  11(2)    1.80    68.03709   1.96291      9  16   0  10     2      4    0.47
  12(3)    1.80    68.04567   1.95433      9  16   0  10     2      4    0.45
  13(1)    1.70    68.04567   1.95433      9  16   0  10     2      4    0.45
  14(2)    1.70    68.03709   1.96291      9  16   0  10     2      4    0.47
  15(3)    1.70    68.04567   1.95433      9  16   0  10     2      4    0.45
  16(1)    1.60    67.80983   2.19017      9  15   0  11     0      4    0.47
  17(2)    1.60    67.80983   2.19017      9  15   0  11     0      4    0.47
  18(1)    1.50    67.27454   2.72546      9  14   0  12     0      4    0.51
  19(2)    1.50    67.27454   2.72546      9  14   0  12     0      4    0.51
  20(1)    1.80    68.04567   1.95433      9  16   0  10     2      4    0.45
 -----------------------------------------------------------------------------

 Strongly delocalized structure accepted

           1 low occupancy (<1.9990e) core orbital  found on  C 4
           1 low occupancy (<1.9990e) core orbital  found on  C 7

 --------------------------------------------------------
   Core                     17.99518 ( 99.973% of  18)
   Valence Lewis            50.05048 ( 96.251% of  52)
  ==================       ============================
   Total Lewis              68.04567 ( 97.208% of  70)
  -----------------------------------------------------
   Valence non-Lewis         1.74458 (  2.492% of  70)
   Rydberg non-Lewis         0.20975 (  0.300% of  70)
  ==================       ============================
   Total non-Lewis           1.95433 (  2.792% of  70)
 --------------------------------------------------------


     (Occupancy)   Bond orbital/ Coefficients/ Hybrids
 -------------------------------------------------------------------------------
   1. (1.99563) BD ( 1) C  1- O  2       
               ( 34.28%)   0.5855* C  1 s( 32.95%)p 2.03( 66.87%)d 0.01(  0.17%)
                                        -0.0002  0.5723 -0.0448  0.0020  0.0050
                                         0.0091  0.0247 -0.0048  0.8019  0.0547
                                        -0.0014 -0.1477 -0.0088 -0.0005 -0.0037
                                         0.0013 -0.0123 -0.0377 -0.0126
               ( 65.72%)   0.8107* O  2 s( 38.83%)p 1.57( 60.91%)d 0.01(  0.26%)
                                         0.0000  0.6229 -0.0150 -0.0044 -0.0058
                                         0.0257 -0.0089  0.0031 -0.7713  0.0214
                                         0.0009  0.1142 -0.0037  0.0000 -0.0018
                                         0.0001 -0.0142 -0.0438 -0.0218
   2. (1.99524) BD ( 1) C  1- O  3       
               ( 35.31%)   0.5942* C  1 s( 33.60%)p 1.97( 66.25%)d 0.00(  0.15%)
                                        -0.0001  0.5780 -0.0430 -0.0028  0.0038
                                         0.6894  0.0560 -0.0057 -0.4282 -0.0063
                                        -0.0036 -0.0247  0.0049 -0.0015 -0.0340
                                         0.0009  0.0019  0.0134 -0.0140
               ( 64.69%)   0.8043* O  3 s( 35.19%)p 1.84( 64.58%)d 0.01(  0.23%)
                                         0.0000  0.5930 -0.0135 -0.0039 -0.0041
                                        -0.6859  0.0153  0.0007  0.3982 -0.0164
                                        -0.0034 -0.1273  0.0019  0.0004 -0.0380
                                         0.0075 -0.0037  0.0187 -0.0209
   3. (1.98323) BD ( 2) C  1- O  3       
               ( 24.33%)   0.4932* C  1 s(  0.37%)p99.99( 99.35%)d 0.77(  0.28%)
                                        -0.0001  0.0606 -0.0029  0.0013 -0.0004
                                         0.0697  0.0015  0.0032  0.1369 -0.0091
                                         0.0035  0.9833 -0.0490  0.0243  0.0037
                                         0.0411 -0.0322  0.0067  0.0069
               ( 75.67%)   0.8699* O  3 s(  0.17%)p99.99( 99.66%)d 1.03(  0.17%)
                                         0.0000  0.0410 -0.0007 -0.0007 -0.0003
                                        -0.0360  0.0011 -0.0003  0.1898 -0.0009
                                         0.0002  0.9794 -0.0033  0.0018 -0.0082
                                        -0.0344  0.0211 -0.0027 -0.0063
   4. (1.98265) BD ( 1) C  1- C  4       
               ( 46.50%)   0.6819* C  1 s( 33.39%)p 1.99( 66.53%)d 0.00(  0.09%)
                                        -0.0002 -0.5749 -0.0577  0.0047  0.0039
                                         0.7152 -0.0109 -0.0205  0.3851  0.0066
                                        -0.0097 -0.0690 -0.0015  0.0007 -0.0229
                                         0.0039 -0.0012 -0.0171  0.0069
               ( 53.50%)   0.7315* C  4 s( 34.91%)p 1.86( 65.03%)d 0.00(  0.07%)
                                         0.0003 -0.5906  0.0165  0.0008  0.0017
                                        -0.7064  0.0093 -0.0006 -0.3786  0.0180
                                         0.0005  0.0868 -0.0037 -0.0008 -0.0206
                                         0.0044  0.0001 -0.0108  0.0102
   5. (1.99143) BD ( 1) C  4- O  6       
               ( 36.15%)   0.6013* C  4 s( 29.07%)p 2.44( 70.81%)d 0.00(  0.13%)
                                         0.0002 -0.5345 -0.0699  0.0045 -0.0041
                                        -0.0131 -0.0194 -0.0003  0.8261  0.0707
                                         0.0001 -0.1399 -0.0237  0.0010 -0.0019
                                         0.0001  0.0105  0.0306  0.0156
               ( 63.85%)   0.7990* O  6 s( 36.29%)p 1.75( 63.47%)d 0.01(  0.23%)
                                        -0.0001 -0.6021  0.0188 -0.0041  0.0012
                                        -0.0338  0.0040  0.0017 -0.7786  0.0127
                                         0.0054  0.1646 -0.0022 -0.0005 -0.0030
                                         0.0000  0.0164  0.0408  0.0194
   6. (1.97609) BD ( 2) C  4- O  6       
               ( 26.59%)   0.5157* C  4 s(  0.59%)p99.99( 99.17%)d 0.42(  0.24%)
                                         0.0001 -0.0747  0.0140  0.0104  0.0028
                                         0.1195 -0.0076 -0.0033  0.1194 -0.0017
                                         0.0030  0.9802 -0.0387  0.0287 -0.0047
                                         0.0010 -0.0450  0.0073  0.0186
               ( 73.41%)   0.8568* O  6 s(  0.08%)p99.99( 99.76%)d 2.02(  0.16%)
                                         0.0000  0.0282 -0.0005 -0.0018 -0.0005
                                         0.1115 -0.0030 -0.0002  0.1798  0.0009
                                         0.0004  0.9761 -0.0087  0.0023  0.0046
                                         0.0007  0.0369 -0.0076 -0.0130
   7. (1.97118) BD ( 1) C  4- C  7       
               ( 49.67%)   0.7048* C  4 s( 35.57%)p 1.81( 64.35%)d 0.00(  0.07%)
                                         0.0000  0.5962 -0.0160  0.0042 -0.0026
                                        -0.6967 -0.0026  0.0078  0.3882 -0.0075
                                        -0.0065  0.0841  0.0147  0.0029 -0.0194
                                        -0.0017  0.0060  0.0126 -0.0129
               ( 50.33%)   0.7094* C  7 s( 32.35%)p 2.09( 67.56%)d 0.00(  0.08%)
                                         0.0001  0.5682 -0.0270  0.0002 -0.0043
                                         0.7301 -0.0121 -0.0130 -0.3761 -0.0063
                                         0.0067  0.0166  0.0202  0.0054 -0.0149
                                         0.0047  0.0039  0.0194 -0.0147
   8. (1.99305) BD ( 1) C  5- H 13       
               ( 61.20%)   0.7823* C  5 s( 31.00%)p 2.22( 68.91%)d 0.00(  0.09%)
                                         0.0000  0.5565  0.0184 -0.0019  0.0004
                                        -0.7336 -0.0236  0.0033 -0.3543 -0.0174
                                        -0.0022 -0.1565  0.0007 -0.0080  0.0184
                                         0.0144  0.0085  0.0131 -0.0102
               ( 38.80%)   0.6229* H 13 s(100.00%)
                                         1.0000  0.0043
   9. (1.98353) BD ( 1) C  5- H 14       
               ( 61.58%)   0.7847* C  5 s( 28.48%)p 2.51( 71.42%)d 0.00(  0.10%)
                                         0.0001  0.5333  0.0186 -0.0010  0.0001
                                         0.6733  0.0254 -0.0059 -0.4730 -0.0238
                                        -0.0022 -0.1891 -0.0013 -0.0106 -0.0236
                                        -0.0113  0.0077  0.0100 -0.0127
               ( 38.42%)   0.6198* H 14 s(100.00%)
                                         1.0000  0.0032
  10. (1.99407) BD ( 1) C  5- H 15       
               ( 60.40%)   0.7772* C  5 s( 29.48%)p 2.39( 70.41%)d 0.00(  0.11%)
                                        -0.0001  0.5421  0.0306  0.0012 -0.0013
                                         0.0713  0.0090 -0.0008  0.8030  0.0427
                                         0.0025 -0.2281 -0.0058 -0.0146  0.0065
                                        -0.0028 -0.0170 -0.0244 -0.0108
               ( 39.60%)   0.6293* H 15 s(100.00%)
                                         1.0000  0.0031
  11. (1.99368) BD ( 1) C  7- O  8       
               ( 36.96%)   0.6080* C  7 s( 32.42%)p 2.08( 67.45%)d 0.00(  0.13%)
                                        -0.0001  0.5677  0.0440  0.0034  0.0025
                                        -0.6781 -0.0499 -0.0098 -0.4562 -0.0248
                                        -0.0055  0.0534  0.0207  0.0011  0.0279
                                        -0.0046 -0.0027  0.0124 -0.0175
               ( 63.04%)   0.7940* O  8 s( 34.82%)p 1.87( 64.96%)d 0.01(  0.22%)
                                         0.0000  0.5899 -0.0080  0.0079 -0.0027
                                         0.6417 -0.0195 -0.0072  0.4449 -0.0189
                                        -0.0061 -0.1979  0.0027  0.0011  0.0374
                                        -0.0126 -0.0089  0.0137 -0.0193
  12. (1.98540) BD ( 2) C  7- O  8       
               ( 22.52%)   0.4746* C  7 s(  0.32%)p99.99( 99.37%)d 0.97(  0.31%)
                                        -0.0001 -0.0532  0.0165  0.0092  0.0020
                                         0.0267 -0.0045  0.0032  0.0098 -0.0071
                                        -0.0037  0.9939 -0.0606  0.0349 -0.0048
                                        -0.0446 -0.0276 -0.0057  0.0172
               ( 77.48%)   0.8802* O  8 s(  0.41%)p99.99( 99.44%)d 0.36(  0.15%)
                                         0.0000  0.0642  0.0003 -0.0014 -0.0005
                                         0.1829  0.0001  0.0006  0.0855  0.0000
                                        -0.0008  0.9765 -0.0034  0.0042  0.0082
                                         0.0279  0.0226  0.0040 -0.0109
  13. (1.98970) BD ( 1) C  7- C  9       
               ( 49.09%)   0.7007* C  7 s( 34.74%)p 1.88( 65.19%)d 0.00(  0.07%)
                                        -0.0002  0.5894 -0.0035 -0.0026  0.0019
                                        -0.0448 -0.0221 -0.0011  0.8054  0.0045
                                         0.0004  0.0259  0.0123 -0.0012  0.0015
                                         0.0019  0.0028 -0.0232 -0.0126
               ( 50.91%)   0.7135* C  9 s( 31.40%)p 2.18( 68.53%)d 0.00(  0.07%)
                                         0.0001  0.5603 -0.0047  0.0009 -0.0025
                                         0.0240 -0.0089  0.0003 -0.8184 -0.0153
                                         0.0036 -0.1211  0.0004 -0.0020  0.0014
                                         0.0016  0.0034 -0.0240 -0.0119
  14. (1.98763) BD ( 1) C  9- H 10       
               ( 60.26%)   0.7763* C  9 s( 21.51%)p 3.64( 78.40%)d 0.00(  0.09%)
                                         0.0000 -0.4637 -0.0057 -0.0013 -0.0008
                                         0.7763 -0.0031  0.0011 -0.3334 -0.0056
                                        -0.0088  0.2645  0.0013  0.0063  0.0187
                                        -0.0091  0.0021 -0.0178  0.0136
               ( 39.74%)   0.6304* H 10 s(100.00%)
                                        -1.0000 -0.0056
  15. (1.98426) BD ( 1) C  9- H 11       
               ( 64.69%)   0.8043* C  9 s( 28.01%)p 2.57( 71.92%)d 0.00(  0.07%)
                                        -0.0002  0.5292  0.0033  0.0026 -0.0003
                                         0.6280 -0.0039 -0.0043  0.4352 -0.0018
                                        -0.0033 -0.3679  0.0083  0.0020  0.0184
                                        -0.0134 -0.0106  0.0030 -0.0071
               ( 35.31%)   0.5942* H 11 s(100.00%)
                                         1.0000  0.0046
  16. (1.96707) BD ( 1) C  9- H 12       
               ( 60.56%)   0.7782* C  9 s( 19.08%)p 4.24( 80.83%)d 0.00(  0.09%)
                                        -0.0002  0.4367  0.0011 -0.0027  0.0024
                                         0.0324  0.0044  0.0029  0.1689  0.0056
                                         0.0071  0.8824 -0.0057  0.0017 -0.0027
                                        -0.0042  0.0080 -0.0014  0.0289
               ( 39.44%)   0.6280* H 12 s(100.00%)
                                         1.0000  0.0021
  17. (1.99936) CR ( 1) C  1             s(100.00%)p 0.00(  0.00%)
                                         1.0000  0.0001  0.0000  0.0000  0.0000
                                         0.0002  0.0000  0.0000  0.0002  0.0000
                                         0.0000  0.0000  0.0000  0.0000  0.0000
                                         0.0000  0.0000  0.0000  0.0000
  18. (1.99978) CR ( 1) O  2             s(100.00%)p 0.00(  0.00%)
                                         1.0000  0.0003  0.0000  0.0000  0.0000
                                         0.0000  0.0000  0.0000  0.0002  0.0000
                                         0.0000  0.0000  0.0000  0.0000  0.0000
                                         0.0000  0.0000  0.0000  0.0000
  19. (1.99981) CR ( 1) O  3             s(100.00%)p 0.00(  0.00%)
                                         1.0000  0.0003  0.0000  0.0000  0.0000
                                         0.0002  0.0000  0.0000 -0.0002  0.0000
                                         0.0000  0.0000  0.0000  0.0000  0.0000
                                         0.0000  0.0000  0.0000  0.0000
  20. (1.99887) CR ( 1) C  4             s(100.00%)p 0.00(  0.00%)
                                         1.0000  0.0003  0.0000  0.0000  0.0000
                                         0.0002  0.0000  0.0000 -0.0001  0.0000
                                         0.0000 -0.0001  0.0000  0.0000  0.0000
                                         0.0000  0.0000  0.0000  0.0000
  21. (1.99952) CR ( 1) C  5             s(100.00%)
                                         1.0000  0.0000  0.0000  0.0000  0.0000
                                         0.0000  0.0000  0.0000  0.0001  0.0000
                                         0.0000  0.0000  0.0000  0.0000  0.0000
                                         0.0000  0.0000  0.0000  0.0000
  22. (1.99981) CR ( 1) O  6             s(100.00%)p 0.00(  0.00%)
                                         1.0000  0.0003  0.0000  0.0000  0.0000
                                         0.0000  0.0000  0.0000 -0.0003  0.0000
                                         0.0000  0.0000  0.0000  0.0000  0.0000
                                         0.0000  0.0000  0.0000  0.0000
  23. (1.99894) CR ( 1) C  7             s(100.00%)p 0.00(  0.00%)
                                         1.0000  0.0002  0.0000  0.0000  0.0000
                                        -0.0002  0.0000  0.0000  0.0001  0.0000
                                         0.0000  0.0001  0.0000  0.0000  0.0000
                                         0.0000  0.0000  0.0000  0.0000
  24. (1.99981) CR ( 1) O  8             s(100.00%)p 0.00(  0.00%)
                                         1.0000  0.0003  0.0000  0.0000  0.0000
                                        -0.0003  0.0000  0.0000 -0.0001  0.0000
                                         0.0000  0.0000  0.0000  0.0000  0.0000
                                         0.0000  0.0000  0.0000  0.0000
  25. (1.99927) CR ( 1) C  9             s(100.00%)p 0.00(  0.00%)
                                         1.0000  0.0002  0.0000  0.0000  0.0000
                                         0.0001  0.0000  0.0000  0.0002  0.0000
                                         0.0000  0.0001  0.0000  0.0000  0.0000
                                         0.0000  0.0000  0.0000  0.0000
  26. (1.97260) LP ( 1) O  2             s( 60.38%)p 0.66( 39.59%)d 0.00(  0.03%)
                                        -0.0004  0.7769  0.0099  0.0009  0.0031
                                         0.0920  0.0056 -0.0050  0.6131 -0.0050
                                        -0.0043 -0.1070  0.0015  0.0008 -0.0044
                                         0.0010  0.0055  0.0146  0.0087
  27. (1.88806) LP ( 2) O  2             s(  0.79%)p99.99( 99.07%)d 0.18(  0.14%)
                                         0.0000  0.0882 -0.0083  0.0067 -0.0017
                                        -0.9944 -0.0128 -0.0057  0.0389 -0.0052
                                         0.0054  0.0057 -0.0015  0.0009  0.0366
                                        -0.0068 -0.0005  0.0025 -0.0011
  28. (1.60463) LP ( 3) O  2             s(  0.01%)p99.99( 99.80%)d13.74(  0.18%)
                                         0.0000  0.0114  0.0016 -0.0009 -0.0001
                                         0.0128 -0.0010  0.0012  0.1558 -0.0003
                                         0.0010  0.9867  0.0025 -0.0024 -0.0011
                                        -0.0027 -0.0404  0.0060  0.0129
  29. (1.98094) LP ( 1) O  3             s( 64.56%)p 0.55( 35.42%)d 0.00(  0.02%)
                                        -0.0004  0.8035  0.0066  0.0012  0.0021
                                         0.4913 -0.0017  0.0034 -0.3321  0.0072
                                         0.0001  0.0488 -0.0006 -0.0001  0.0113
                                        -0.0016  0.0017 -0.0037  0.0084
  30. (1.89742) LP ( 2) O  3             s(  0.08%)p99.99( 99.78%)d 1.62(  0.13%)
                                         0.0000  0.0269  0.0098  0.0003 -0.0006
                                         0.5329  0.0054 -0.0011  0.8327  0.0087
                                        -0.0012 -0.1429 -0.0006  0.0003 -0.0149
                                         0.0030 -0.0048 -0.0328 -0.0003
  31. (1.16842) LP ( 1) C  5             s( 11.85%)p 7.44( 88.14%)d 0.00(  0.01%)
                                         0.0000  0.3315 -0.0925  0.0022  0.0014
                                         0.0311 -0.0191  0.0008  0.0421 -0.0158
                                        -0.0122  0.9314 -0.1019 -0.0018 -0.0033
                                         0.0043  0.0062  0.0006  0.0075
  32. (1.98262) LP ( 1) O  6             s( 63.59%)p 0.57( 36.39%)d 0.00(  0.02%)
                                        -0.0004  0.7974  0.0089 -0.0017  0.0006
                                        -0.0024  0.0018  0.0007 -0.5969  0.0037
                                        -0.0016  0.0872 -0.0009  0.0008 -0.0004
                                         0.0004  0.0045  0.0113  0.0093
  33. (1.90775) LP ( 2) O  6             s(  0.05%)p99.99( 99.84%)d 2.44(  0.12%)
                                         0.0000  0.0217 -0.0025 -0.0007  0.0003
                                        -0.9926 -0.0076  0.0002  0.0482  0.0017
                                         0.0000  0.1039  0.0021  0.0006 -0.0331
                                         0.0074  0.0026 -0.0027 -0.0012
  34. (1.97762) LP ( 1) O  8             s( 64.75%)p 0.54( 35.24%)d 0.00(  0.02%)
                                        -0.0004  0.8046  0.0036 -0.0036  0.0013
                                        -0.4895  0.0039 -0.0005 -0.3288  0.0096
                                         0.0001  0.0676 -0.0014  0.0003 -0.0106
                                         0.0026  0.0020 -0.0031  0.0078
  35. (1.89659) LP ( 2) O  8             s(  0.01%)p99.99( 99.87%)d10.29(  0.12%)
                                        -0.0001 -0.0048  0.0088  0.0034 -0.0005
                                        -0.5591 -0.0084 -0.0025  0.8276  0.0107
                                         0.0007  0.0325  0.0019 -0.0005  0.0098
                                         0.0046 -0.0041 -0.0319 -0.0024
  36. (0.02053) RY*( 1) C  1             s( 11.42%)p 7.29( 83.29%)d 0.46(  5.29%)
                                         0.0000  0.0252  0.3363 -0.0063  0.0200
                                         0.0303  0.0651  0.1334  0.0695 -0.8825
                                         0.0074 -0.0123  0.1615  0.0012  0.1036
                                        -0.0224  0.0487  0.1982  0.0029
  37. (0.01767) RY*( 2) C  1             s( 31.03%)p 1.84( 57.14%)d 0.38( 11.83%)
                                         0.0000  0.0430  0.5279  0.1640  0.0538
                                         0.0761 -0.6847  0.1181  0.0100  0.2372
                                         0.1558 -0.0057 -0.0349 -0.0302  0.3110
                                        -0.0569  0.0247  0.1319  0.0185
  38. (0.00590) RY*( 3) C  1             s(  1.00%)p 8.99(  8.98%)d90.13( 90.02%)
                                         0.0000  0.0000  0.0989  0.0010  0.0145
                                         0.0021  0.0455 -0.1133  0.0126  0.0534
                                        -0.0382  0.0607  0.1558 -0.2061 -0.1171
                                        -0.5022  0.7467 -0.1711 -0.2177
  39. (0.00554) RY*( 4) C  1             s( 33.62%)p 1.09( 36.50%)d 0.89( 29.89%)
                                         0.0000 -0.0230 -0.1387  0.5587 -0.0655
                                         0.0030  0.4447  0.3045  0.0040  0.1324
                                         0.2254  0.0012 -0.0552 -0.0549  0.4488
                                        -0.1107  0.1119  0.2608  0.0682
  40. (0.00272) RY*( 5) C  1             s(  1.54%)p 2.61(  4.02%)d61.25( 94.44%)
                                         0.0000 -0.0067  0.1131 -0.0478 -0.0174
                                        -0.0122  0.0612 -0.0205  0.0337  0.1653
                                         0.0797 -0.0058 -0.0324 -0.0012 -0.5251
                                         0.0690  0.1183  0.8058 -0.0261
  41. (0.00192) RY*( 6) C  1             s( 48.15%)p 0.80( 38.61%)d 0.28( 13.24%)
                                         0.0000 -0.0183  0.6848  0.0491 -0.0987
                                         0.0265  0.4866 -0.2360  0.0104  0.2241
                                        -0.0028  0.0059  0.1696 -0.1175 -0.0846
                                        -0.0270 -0.2890 -0.1852  0.0817
  42. (0.00075) RY*( 7) C  1             s(  5.54%)p12.80( 70.89%)d 4.26( 23.57%)
                                         0.0000 -0.0021  0.2210  0.0492 -0.0643
                                         0.0068  0.1190 -0.1670 -0.0035 -0.0996
                                         0.0715 -0.0447 -0.7903  0.1585 -0.0036
                                         0.3223  0.3299 -0.1412 -0.0558
  43. (0.00045) RY*( 8) C  1             s( 15.89%)p 4.44( 70.60%)d 0.85( 13.51%)
                                         0.0000  0.0131 -0.1560  0.3593  0.0727
                                        -0.0176 -0.1543 -0.5295 -0.0049 -0.1885
                                        -0.0817  0.0016 -0.2538 -0.5430 -0.0429
                                        -0.2274 -0.2503  0.1097  0.0826
  44. (0.00030) RY*( 9) C  1             s( 50.94%)p 0.72( 36.93%)d 0.24( 12.14%)
                                         0.0000  0.0169 -0.0108  0.5981 -0.3890
                                        -0.0098 -0.1740 -0.1338 -0.0025 -0.0536
                                        -0.3341  0.0013  0.2418  0.3847 -0.2408
                                         0.1506  0.1223 -0.0906  0.1324
  45. (0.00010) RY*(10) C  1             s( 10.35%)p 7.86( 81.38%)d 0.80(  8.27%)
                                         0.0000  0.0020 -0.0954  0.0831  0.2958
                                        -0.0106 -0.0034 -0.5262 -0.0029 -0.0379
                                         0.6124  0.0043  0.3258  0.2327  0.0851
                                         0.2436  0.1213 -0.0121 -0.0353
  46. (0.00008) RY*(11) C  1             s( 52.24%)p 0.70( 36.79%)d 0.21( 10.97%)
  47. (0.00006) RY*(12) C  1             s(  3.27%)p12.16( 39.82%)d17.38( 56.91%)
  48. (0.00003) RY*(13) C  1             s( 22.93%)p 1.35( 30.94%)d 2.01( 46.13%)
  49. (0.00001) RY*(14) C  1             s( 11.78%)p 0.44(  5.14%)d 7.05( 83.08%)
  50. (0.00546) RY*( 1) O  2             s( 22.55%)p 3.41( 76.81%)d 0.03(  0.64%)
                                         0.0000  0.0032  0.4635 -0.1019 -0.0183
                                        -0.0150  0.8695 -0.0093 -0.0177  0.0703
                                        -0.0801  0.0032  0.0112  0.0001  0.0431
                                        -0.0129  0.0090  0.0647 -0.0077
  51. (0.00221) RY*( 2) O  2             s(  0.03%)p99.99( 98.46%)d46.75(  1.51%)
                                         0.0000 -0.0009  0.0053  0.0133 -0.0108
                                        -0.0016 -0.0326 -0.0062  0.0014  0.2358
                                         0.0128  0.0019  0.9614  0.0577  0.0007
                                        -0.0650  0.1011 -0.0185 -0.0183
  52. (0.00173) RY*( 3) O  2             s( 71.87%)p 0.38( 27.44%)d 0.01(  0.69%)
                                         0.0000 -0.0008  0.8138  0.2068 -0.1168
                                         0.0015 -0.4281  0.0478 -0.0049  0.2718
                                         0.0803 -0.0011 -0.0903  0.0191  0.0724
                                         0.0052 -0.0036  0.0002  0.0400
  53. (0.00043) RY*( 4) O  2             s( 33.10%)p 1.68( 55.55%)d 0.34( 11.36%)
                                         0.0000  0.0055  0.0667  0.5674  0.0672
                                         0.0183  0.1123 -0.0450 -0.0089 -0.5782
                                         0.4351  0.0012  0.1288 -0.0140  0.2992
                                        -0.0466 -0.0236 -0.1438 -0.0255
  54. (0.00019) RY*( 5) O  2             s( 45.33%)p 1.00( 45.40%)d 0.20(  9.27%)
                                         0.0000 -0.0035 -0.2493  0.6085  0.1443
                                         0.0056  0.1462  0.2646  0.0099  0.4998
                                        -0.2591 -0.0030 -0.1019 -0.1873  0.2070
                                         0.0190 -0.0148 -0.0916  0.2023
  55. (0.00013) RY*( 6) O  2             s( 13.52%)p 5.93( 80.16%)d 0.47(  6.33%)
                                         0.0000  0.0047  0.1347 -0.0953  0.3285
                                        -0.0045 -0.0707  0.6733 -0.0089 -0.3398
                                        -0.3367  0.0044  0.0514  0.3342 -0.0051
                                        -0.1617  0.1231 -0.0673  0.1320
  56. (0.00008) RY*( 7) O  2             s( 10.13%)p 5.13( 51.97%)d 3.74( 37.91%)
  57. (0.00005) RY*( 8) O  2             s( 12.83%)p 3.78( 48.46%)d 3.02( 38.70%)
  58. (0.00003) RY*( 9) O  2             s( 16.23%)p 2.08( 33.68%)d 3.09( 50.09%)
  59. (0.00002) RY*(10) O  2             s(  3.11%)p 1.57(  4.87%)d29.59( 92.02%)
  60. (0.00001) RY*(11) O  2             s( 63.33%)p 0.43( 27.44%)d 0.15(  9.23%)
  61. (0.00000) RY*(12) O  2             s(  0.50%)p14.92(  7.45%)d99.99( 92.05%)
  62. (0.00001) RY*(13) O  2             s(  2.58%)p12.87( 33.22%)d24.88( 64.20%)
  63. (0.00001) RY*(14) O  2             s(  4.89%)p 1.99(  9.72%)d17.46( 85.39%)
  64. (0.00403) RY*( 1) O  3             s( 12.44%)p 7.00( 87.14%)d 0.03(  0.42%)
                                         0.0000 -0.0001  0.3384 -0.0912 -0.0396
                                        -0.0167  0.5634 -0.0118 -0.0031  0.7429
                                        -0.0263  0.0004 -0.0305 -0.0010  0.0513
                                        -0.0067  0.0077  0.0153  0.0347
  65. (0.00206) RY*( 2) O  3             s(  0.61%)p99.99( 98.18%)d 1.99(  1.21%)
                                         0.0000  0.0006  0.0760  0.0154 -0.0098
                                        -0.0021 -0.0039 -0.0187 -0.0006 -0.0717
                                        -0.0115 -0.0069 -0.9864  0.0550  0.0080
                                        -0.0329  0.0996 -0.0175 -0.0275
  66. (0.00067) RY*( 3) O  3             s( 60.67%)p 0.62( 37.44%)d 0.03(  1.89%)
                                         0.0000  0.0064  0.6536  0.4109 -0.1028
                                        -0.0168 -0.5365 -0.2181  0.0064  0.1564
                                         0.1050 -0.0005  0.0470 -0.0305 -0.0789
                                         0.0106  0.0167  0.0879  0.0673
  67. (0.00055) RY*( 4) O  3             s( 52.35%)p 0.68( 35.53%)d 0.23( 12.12%)
                                         0.0000 -0.0010  0.6147 -0.3810  0.0231
                                        -0.0091  0.1932  0.0765 -0.0115 -0.4709
                                        -0.2886  0.0033  0.0759  0.0334 -0.0434
                                         0.0398 -0.0462 -0.3319  0.0734
  68. (0.00013) RY*( 5) O  3             s( 19.89%)p 3.76( 74.80%)d 0.27(  5.31%)
                                         0.0000  0.0006 -0.0058  0.4456  0.0176
                                        -0.0049 -0.0246  0.5618  0.0098  0.0448
                                        -0.6407  0.0004  0.0064  0.1382  0.2033
                                        -0.0053  0.0015  0.0889  0.0620
  69. (0.00008) RY*( 6) O  3             s( 13.51%)p 2.63( 35.57%)d 3.77( 50.92%)
  70. (0.00003) RY*( 7) O  3             s( 19.40%)p 3.19( 61.91%)d 0.96( 18.69%)
  71. (0.00002) RY*( 8) O  3             s( 16.37%)p 4.93( 80.64%)d 0.18(  2.99%)
  72. (0.00000) RY*( 9) O  3             s( 74.98%)p 0.32( 24.06%)d 0.01(  0.96%)
  73. (0.00001) RY*(10) O  3             s(  2.95%)p12.24( 36.13%)d20.63( 60.91%)
  74. (0.00001) RY*(11) O  3             s(  0.76%)p 2.43(  1.84%)d99.99( 97.41%)
  75. (0.00001) RY*(12) O  3             s(  2.39%)p 1.41(  3.38%)d39.45( 94.23%)
  76. (0.00000) RY*(13) O  3             s( 21.93%)p 0.49( 10.80%)d 3.07( 67.27%)
  77. (0.00001) RY*(14) O  3             s(  1.75%)p 7.49( 13.13%)d48.52( 85.11%)
  78. (0.01615) RY*( 1) C  4             s( 15.26%)p 5.51( 84.12%)d 0.04(  0.62%)
                                         0.0000 -0.0577  0.3854  0.0265  0.0015
                                        -0.0075  0.1375 -0.0455  0.0752 -0.8829
                                        -0.0516 -0.0176  0.1657  0.0672  0.0331
                                         0.0168 -0.0582  0.0146  0.0352
  79. (0.00613) RY*( 2) C  4             s( 11.26%)p 4.46( 50.28%)d 3.41( 38.45%)
                                         0.0000  0.0214  0.3173 -0.1022 -0.0325
                                        -0.0112  0.4257 -0.1311  0.0127  0.2438
                                         0.0437 -0.0495 -0.2591  0.4162  0.1513
                                         0.1568 -0.5048  0.0648  0.2793
  80. (0.00482) RY*( 3) C  4             s(  2.23%)p23.92( 53.43%)d19.86( 44.34%)
                                         0.0000  0.0067  0.1286  0.0672 -0.0351
                                         0.0090 -0.6233  0.1098 -0.0133 -0.0154
                                        -0.2460 -0.0336 -0.0691  0.2584 -0.5357
                                         0.2189 -0.2359  0.1416  0.1813
  81. (0.00327) RY*( 4) C  4             s( 37.99%)p 0.80( 30.26%)d 0.84( 31.75%)
                                         0.0000 -0.0066  0.6087  0.0520 -0.0816
                                         0.0230  0.3149  0.1257  0.0414  0.3061
                                        -0.1005  0.0133  0.2261 -0.1740 -0.4613
                                        -0.0060  0.2372 -0.1414 -0.1686
  82. (0.00218) RY*( 5) C  4             s( 30.44%)p 0.98( 29.94%)d 1.30( 39.62%)
                                         0.0000 -0.0015  0.5397  0.1038 -0.0484
                                        -0.0167 -0.4906 -0.0965  0.0152  0.1990
                                        -0.0367 -0.0018  0.0859 -0.0239  0.5884
                                        -0.1847  0.0671  0.0950 -0.0486
  83. (0.00079) RY*( 6) C  4             s( 17.70%)p 2.80( 49.54%)d 1.85( 32.75%)
                                         0.0000 -0.0064 -0.1875  0.3425 -0.1567
                                         0.0073  0.2248  0.2836 -0.0284  0.0791
                                        -0.3570  0.0154  0.4378  0.1949  0.1743
                                         0.1145  0.0287  0.5320 -0.0126
  84. (0.00068) RY*( 7) C  4             s(  6.60%)p10.53( 69.45%)d 3.63( 23.96%)
                                         0.0000  0.0109  0.1467  0.2105  0.0052
                                        -0.0041  0.0797  0.3694 -0.0129 -0.0985
                                         0.1310 -0.0145 -0.6890 -0.2228 -0.0093
                                        -0.0188  0.2223  0.4342  0.0348
  85. (0.00042) RY*( 8) C  4             s(  6.43%)p 6.35( 40.87%)d 8.19( 52.70%)
                                         0.0000 -0.0023  0.0311  0.2439 -0.0623
                                        -0.0017 -0.0870  0.3553  0.0125 -0.0014
                                         0.4882  0.0024  0.1103  0.1558  0.1624
                                         0.6168  0.1067 -0.3288 -0.0241
  86. (0.00035) RY*( 9) C  4             s( 51.15%)p 0.12(  6.14%)d 0.84( 42.72%)
                                         0.0000  0.0024 -0.0418  0.7009  0.1358
                                        -0.0011  0.0260  0.0856  0.0053  0.0123
                                         0.0817 -0.0206  0.0442 -0.2100 -0.0631
                                        -0.3658 -0.4519 -0.2612  0.1299
  87. (0.00032) RY*(10) C  4             s(  6.71%)p 7.89( 52.91%)d 6.02( 40.38%)
                                         0.0000  0.0090 -0.0082  0.2587 -0.0052
                                         0.0057  0.0049 -0.3790 -0.0138  0.0209
                                         0.4369  0.0001  0.0971  0.4295 -0.2115
                                        -0.2609  0.4267  0.1899  0.2700
  88. (0.00014) RY*(11) C  4             s( 24.14%)p 2.02( 48.79%)d 1.12( 27.07%)
                                         0.0000  0.0083 -0.0098  0.3867  0.3029
                                        -0.0009  0.0664 -0.5040  0.0004  0.0136
                                        -0.4192  0.0015 -0.2211 -0.0685  0.0666
                                         0.4384  0.2390 -0.1283 -0.0199
  89. (0.00012) RY*(12) C  4             s( 43.29%)p 0.82( 35.66%)d 0.49( 21.05%)
                                         0.0000  0.0006  0.0287 -0.1240  0.6456
                                         0.0003  0.0268  0.4297  0.0070  0.0196
                                        -0.2293 -0.0004 -0.0047  0.3438  0.0948
                                        -0.2164  0.2373 -0.2310  0.2122
  90. (0.00004) RY*(13) C  4             s( 42.16%)p 0.71( 29.87%)d 0.66( 27.97%)
  91. (0.00003) RY*(14) C  4             s(  4.50%)p 4.31( 19.40%)d16.93( 76.10%)
  92. (0.01238) RY*( 1) C  5             s( 42.79%)p 1.31( 56.10%)d 0.03(  1.12%)
                                         0.0000  0.0224  0.6530 -0.0220  0.0227
                                        -0.0016  0.1628 -0.0431 -0.0018  0.0529
                                         0.0326  0.1376  0.7026 -0.1270 -0.0063
                                         0.0014 -0.0262  0.0026  0.1021
  93. (0.00151) RY*( 2) C  5             s( 53.74%)p 0.83( 44.52%)d 0.03(  1.74%)
                                         0.0000 -0.0257  0.5722  0.4569  0.0228
                                         0.0036 -0.0833  0.0128 -0.0222  0.2730
                                         0.1901  0.0104 -0.5485 -0.1613  0.0439
                                         0.0821  0.0827  0.0089 -0.0423
  94. (0.00092) RY*( 3) C  5             s(  4.86%)p18.70( 90.83%)d 0.89(  4.31%)
                                         0.0000 -0.0003  0.1549  0.1437 -0.0627
                                         0.0216 -0.7432 -0.2806  0.0316 -0.5143
                                        -0.0575 -0.0036  0.0671  0.0593  0.0021
                                        -0.1756  0.0213  0.1048  0.0291
  95. (0.00078) RY*( 4) C  5             s(  6.51%)p12.89( 83.91%)d 1.47(  9.58%)
                                         0.0000 -0.0121  0.0944  0.2346 -0.0310
                                        -0.0149  0.5162 -0.1431  0.0293 -0.6702
                                        -0.2602 -0.0109 -0.1667 -0.0790  0.0103
                                         0.2858 -0.1134  0.0029  0.0344
  96. (0.00031) RY*( 5) C  5             s(  3.04%)p23.61( 71.70%)d 8.32( 25.26%)
                                         0.0000 -0.0006  0.1445  0.0975  0.0008
                                        -0.0059  0.0172  0.6113  0.0086 -0.0507
                                        -0.5692 -0.0015 -0.0576  0.1139 -0.0907
                                        -0.4161  0.2274  0.0430  0.1331
  97. (0.00015) RY*( 6) C  5             s( 37.93%)p 0.91( 34.59%)d 0.72( 27.48%)
                                         0.0000 -0.0019 -0.3089  0.5267  0.0799
                                        -0.0161  0.0636  0.0543 -0.0018 -0.0217
                                         0.1285 -0.0004  0.2229 -0.5215 -0.1830
                                        -0.3819 -0.1571 -0.0315 -0.2643
  98. (0.00013) RY*( 7) C  5             s(  7.94%)p 7.52( 59.70%)d 4.08( 32.36%)
                                         0.0000  0.0070 -0.0928  0.2655 -0.0157
                                        -0.0157  0.2078 -0.6018  0.0025  0.2334
                                        -0.2283 -0.0001  0.0761  0.2811 -0.1084
                                        -0.1905  0.5239  0.0240 -0.0245
  99. (0.00007) RY*( 8) C  5             s( 17.93%)p 3.01( 53.91%)d 1.57( 28.17%)
 100. (0.00005) RY*( 9) C  5             s( 20.54%)p 1.66( 34.07%)d 2.21( 45.39%)
 101. (0.00005) RY*(10) C  5             s(  0.76%)p66.07( 50.25%)d64.42( 48.99%)
 102. (0.00001) RY*(11) C  5             s( 97.60%)p 0.01(  1.27%)d 0.01(  1.14%)
 103. (0.00001) RY*(12) C  5             s(  1.04%)p 3.43(  3.56%)d92.13( 95.41%)
 104. (0.00001) RY*(13) C  5             s(  0.08%)p39.17(  3.08%)d99.99( 96.84%)
 105. (0.00001) RY*(14) C  5             s(  4.46%)p 3.06( 13.64%)d18.38( 81.90%)
 106. (0.00380) RY*( 1) O  6             s(  2.10%)p46.14( 97.07%)d 0.39(  0.82%)
                                         0.0000  0.0007  0.1337  0.0561  0.0030
                                        -0.0060  0.8131 -0.0719  0.0037 -0.2044
                                        -0.0049 -0.0039 -0.5125  0.0030 -0.0627
                                        -0.0083  0.0508 -0.0125 -0.0387
 107. (0.00271) RY*( 2) O  6             s(  3.21%)p30.00( 96.27%)d 0.16(  0.53%)
                                         0.0000 -0.0006  0.1780  0.0168 -0.0115
                                         0.0000 -0.5670  0.0290 -0.0018 -0.1801
                                         0.0065 -0.0106 -0.7787 -0.0368  0.0247
                                        -0.0201  0.0563 -0.0238 -0.0224
 108. (0.00088) RY*( 3) O  6             s( 87.19%)p 0.11( 10.01%)d 0.03(  2.80%)
                                         0.0000  0.0043  0.9261  0.1170 -0.0255
                                        -0.0018 -0.0144 -0.1051  0.0190  0.0397
                                         0.1812 -0.0008  0.2185 -0.0793  0.0334
                                         0.0114  0.0284 -0.0824  0.1385
 109. (0.00039) RY*( 4) O  6             s( 12.77%)p 6.42( 82.06%)d 0.40(  5.16%)
                                         0.0000 -0.0020  0.0347  0.3254 -0.1437
                                         0.0017 -0.0758  0.0522 -0.0021 -0.7704
                                        -0.3619  0.0023  0.2379  0.1761 -0.0732
                                         0.0022  0.0847  0.1946  0.0351
 110. (0.00021) RY*( 5) O  6             s( 48.55%)p 0.91( 44.04%)d 0.15(  7.40%)
                                         0.0000 -0.0049 -0.2373  0.6024  0.2575
                                        -0.0029 -0.0500 -0.4494 -0.0189 -0.1415
                                         0.3901  0.0070  0.0262 -0.2502  0.0913
                                        -0.0259 -0.1005 -0.2341 -0.0115
 111. (0.00010) RY*( 6) O  6             s( 10.22%)p 8.39( 85.81%)d 0.39(  3.97%)
 112. (0.00009) RY*( 7) O  6             s(  7.03%)p11.92( 83.81%)d 1.30(  9.16%)
 113. (0.00004) RY*( 8) O  6             s( 36.47%)p 0.86( 31.31%)d 0.88( 32.22%)
 114. (0.00001) RY*( 9) O  6             s( 81.11%)p 0.15( 12.33%)d 0.08(  6.56%)
 115. (0.00002) RY*(10) O  6             s(  1.91%)p 4.76(  9.11%)d46.48( 88.98%)
 116. (0.00002) RY*(11) O  6             s(  0.49%)p 0.74(  0.36%)d99.99( 99.15%)
 117. (0.00000) RY*(12) O  6             s(  1.47%)p 2.17(  3.20%)d64.82( 95.33%)
 118. (0.00001) RY*(13) O  6             s(  5.72%)p 7.67( 43.87%)d 8.81( 50.41%)
 119. (0.00001) RY*(14) O  6             s(  1.73%)p 0.76(  1.30%)d56.17( 96.97%)
 120. (0.01647) RY*( 1) C  7             s( 14.02%)p 6.03( 84.55%)d 0.10(  1.43%)
                                         0.0000 -0.0491  0.3705 -0.0114 -0.0198
                                         0.0440 -0.7521 -0.0685  0.0190 -0.4957
                                        -0.0807 -0.0151  0.1277  0.0642 -0.0288
                                        -0.0405 -0.0070 -0.0948  0.0529
 121. (0.01033) RY*( 2) C  7             s(  2.24%)p36.84( 82.65%)d 6.74( 15.11%)
                                         0.0000 -0.0010 -0.0538  0.1396  0.0057
                                        -0.0132  0.4243 -0.3227  0.0219 -0.7122
                                         0.1402  0.0142  0.1179 -0.0263 -0.1183
                                         0.0730  0.0864  0.3483 -0.0550
 122. (0.00901) RY*( 3) C  7             s(  0.18%)p99.99( 52.94%)d99.99( 46.88%)
                                         0.0000  0.0295 -0.0100  0.0119  0.0260
                                        -0.0055  0.0722 -0.0891 -0.0009 -0.0846
                                         0.0129 -0.0827 -0.4913  0.5106 -0.1301
                                        -0.5580 -0.1995  0.0252  0.3164
 123. (0.00379) RY*( 4) C  7             s( 15.91%)p 2.72( 43.34%)d 2.56( 40.76%)
                                         0.0000 -0.0183 -0.1340  0.3752 -0.0059
                                        -0.0151 -0.3821 -0.2717  0.0163  0.3726
                                         0.2712  0.0058  0.0196  0.0180 -0.2508
                                        -0.0023  0.0683  0.5826 -0.0248
 124. (0.00178) RY*( 5) C  7             s(  3.03%)p25.66( 77.69%)d 6.37( 19.28%)
                                         0.0000  0.0116 -0.0770  0.1555 -0.0065
                                         0.0053 -0.1346  0.2341  0.0006 -0.1987
                                         0.0209 -0.0252 -0.7427 -0.3345  0.0979
                                         0.2458 -0.2119  0.1135 -0.2550
 125. (0.00142) RY*( 6) C  7             s( 75.92%)p 0.28( 21.38%)d 0.04(  2.70%)
                                         0.0000  0.0113  0.8692 -0.0198 -0.0565
                                         0.0288  0.2485 -0.2390  0.0069  0.2279
                                         0.0276 -0.0138 -0.1728 -0.1064 -0.0997
                                         0.0924 -0.0365  0.0753 -0.0390
 126. (0.00072) RY*( 7) C  7             s( 40.71%)p 0.88( 35.99%)d 0.57( 23.30%)
                                         0.0000  0.0017  0.1625  0.6150 -0.0501
                                         0.0212  0.1015  0.2989  0.0123 -0.0050
                                        -0.4619 -0.0082  0.1413  0.1620  0.4066
                                        -0.0389  0.0092  0.2340  0.1065
 127. (0.00047) RY*( 8) C  7             s( 10.92%)p 0.94( 10.23%)d 7.22( 78.85%)
                                         0.0000  0.0090 -0.0419  0.3266 -0.0261
                                        -0.0215  0.0696  0.1163 -0.0128 -0.0081
                                        -0.2507 -0.0019  0.0917  0.1096 -0.7352
                                         0.2593 -0.3124 -0.2854 -0.0420
 128. (0.00033) RY*( 9) C  7             s(  5.10%)p 8.97( 45.77%)d 9.62( 49.13%)
                                         0.0000  0.0177  0.1464  0.1136  0.1280
                                        -0.0041  0.0379  0.5287 -0.0073 -0.0756
                                         0.3954  0.0029 -0.1000  0.0678 -0.2138
                                         0.1180  0.5750 -0.0462  0.3144
 129. (0.00021) RY*(10) C  7             s( 17.28%)p 2.64( 45.60%)d 2.15( 37.12%)
                                         0.0000 -0.0087  0.0462  0.4063 -0.0744
                                         0.0088  0.0281 -0.0859 -0.0063 -0.0056
                                         0.6300 -0.0067  0.1055  0.1990  0.3044
                                         0.0488 -0.2815 -0.4151 -0.1570
 130. (0.00019) RY*(11) C  7             s( 13.45%)p 1.73( 23.27%)d 4.70( 63.28%)
                                         0.0000 -0.0013  0.0015  0.2731 -0.2448
                                         0.0007  0.0306  0.0002 -0.0069 -0.0192
                                        -0.0257 -0.0046  0.0115 -0.4802 -0.1639
                                        -0.6517  0.2593 -0.2328 -0.2443
 131. (0.00005) RY*(12) C  7             s( 22.09%)p 1.84( 40.67%)d 1.69( 37.24%)
 132. (0.00003) RY*(13) C  7             s( 78.16%)p 0.09(  7.34%)d 0.19( 14.50%)
 133. (0.00002) RY*(14) C  7             s(  1.16%)p25.01( 29.01%)d60.21( 69.83%)
 134. (0.00339) RY*( 1) O  8             s(  3.70%)p25.68( 95.13%)d 0.31(  1.17%)
                                         0.0000 -0.0025  0.1919  0.0088 -0.0109
                                         0.0057 -0.5108  0.0557 -0.0048  0.4467
                                        -0.0824 -0.0067 -0.6909  0.0586 -0.0055
                                         0.0636  0.0457  0.0634 -0.0385
 135. (0.00289) RY*( 2) O  8             s(  0.83%)p99.99( 98.31%)d 1.05(  0.86%)
                                         0.0000 -0.0001  0.0886  0.0077  0.0188
                                         0.0121 -0.3234  0.0406 -0.0033  0.6389
                                        -0.0569  0.0026  0.6818 -0.0190 -0.0321
                                        -0.0422 -0.0086  0.0462  0.0602
 136. (0.00051) RY*( 3) O  8             s( 68.49%)p 0.41( 27.80%)d 0.05(  3.70%)
                                         0.0000  0.0040  0.8230  0.0834 -0.0238
                                         0.0125  0.3052  0.3479 -0.0009 -0.0153
                                        -0.1796 -0.0022  0.0161 -0.1758  0.1497
                                         0.0107 -0.0083 -0.0797  0.0899
[...]
 O          0.014  0.202  0.000    0.001  0.000  0.314    0.051  0.159  0.003
 C         -0.100 -0.021  0.121   -0.101 -0.132 -0.080   -0.045 -0.038 -0.039
 H         -0.168 -0.179  0.080   -0.156 -0.263 -0.163   -0.151 -0.294 -0.361
 H         -0.208  0.081  0.389   -0.195 -0.045  0.189   -0.234  0.145  0.191
 H         -0.146 -0.204 -0.006   -0.196 -0.303 -0.201   -0.201 -0.032 -0.023
 H         -0.168 -0.179 -0.079    0.155  0.263 -0.159   -0.149 -0.291  0.359
 H         -0.148 -0.205  0.006    0.193  0.304 -0.198   -0.203 -0.021  0.015
 H         -0.210  0.083 -0.389    0.195  0.044  0.189   -0.235  0.151 -0.190
 TransDip  -0.027 -0.023  0.000    0.000  0.000 -0.129   -0.024 -0.063  0.001

 Mode:                13                     14                     15
 Frequency:       536.70                 601.90                 766.03
 Force Cnst:      1.0935                 1.0256                 4.5233
 Red. Mass:       6.4430                 4.8048                13.0832
 IR Active:          YES                    YES                    YES
 IR Intens:        6.077                 14.571                 76.891
 Raman Active:       YES                    YES                    YES
               X      Y      Z        X      Y      Z        X      Y      Z
 C          0.001 -0.003  0.401    0.038 -0.033  0.000   -0.440 -0.342 -0.001
 O         -0.003 -0.003 -0.130   -0.094 -0.062  0.000    0.381 -0.352  0.000
 O          0.002 -0.001 -0.139    0.044 -0.050  0.000   -0.052  0.467  0.001
 C          0.000  0.004  0.351    0.045  0.196  0.001   -0.269  0.042  0.001
 C         -0.025  0.158 -0.157    0.031 -0.157  0.237    0.009 -0.027  0.038
 O          0.001  0.005 -0.090   -0.080  0.208  0.000    0.110  0.105  0.000
 C         -0.006  0.001 -0.120    0.148 -0.054  0.001    0.033  0.044  0.001
 O         -0.001 -0.004  0.162   -0.076  0.110 -0.001    0.066  0.038  0.000
 C          0.028 -0.156 -0.157    0.031 -0.155 -0.237    0.008 -0.028 -0.039
 H          0.025 -0.163 -0.016   -0.012 -0.261 -0.429   -0.026 -0.119 -0.112
 H          0.035 -0.167 -0.020   -0.048 -0.080 -0.202   -0.028  0.007  0.032
 H          0.046 -0.346 -0.294   -0.051 -0.077 -0.176   -0.029 -0.088 -0.082
 H         -0.017  0.178 -0.032   -0.012 -0.266  0.428   -0.026 -0.120  0.111
 H         -0.037  0.348 -0.292   -0.051 -0.082  0.179   -0.029 -0.089  0.083
 H         -0.023  0.158 -0.009   -0.049 -0.080  0.200   -0.029  0.009 -0.036
 TransDip   0.001  0.002  0.079    0.090  0.083  0.001   -0.279 -0.034  0.001

 Mode:                16                     17                     18
 Frequency:       787.75                 810.93                 857.95
 Force Cnst:      1.9326                 1.1968                 0.8915
 Red. Mass:       5.2857                 3.0890                 2.0557
 IR Active:          YES                    YES                    YES
 IR Intens:        4.717                  1.891                 30.879
 Raman Active:       YES                    YES                    YES
               X      Y      Z        X      Y      Z        X      Y      Z
 C          0.000 -0.002  0.380   -0.012  0.012  0.015    0.000  0.000  0.131
 O          0.000 -0.002 -0.090    0.007  0.033 -0.003    0.000  0.000 -0.029
 O          0.002  0.001 -0.091   -0.033 -0.002 -0.003    0.000  0.000 -0.029
 C         -0.002  0.004 -0.321    0.043 -0.071 -0.014   -0.001  0.001 -0.147
 C         -0.014 -0.137  0.118   -0.043 -0.057  0.164    0.008  0.112 -0.023
 O         -0.002  0.005  0.054    0.030 -0.088  0.003    0.000  0.001  0.030
 C          0.008 -0.013 -0.209   -0.151  0.248 -0.001    0.002 -0.003  0.165
 O         -0.006 -0.002 -0.003    0.116  0.047 -0.001   -0.002 -0.001 -0.003
 C          0.018  0.142  0.136   -0.042 -0.052 -0.158   -0.007 -0.110 -0.019
 H         -0.072 -0.068 -0.046    0.024  0.114  0.274    0.042 -0.005 -0.282
 H         -0.139  0.288  0.445    0.100 -0.195 -0.155    0.014 -0.118 -0.401
 H         -0.113 -0.018  0.027    0.132 -0.303 -0.353   -0.055  0.332  0.300
 H          0.069  0.055 -0.015    0.025  0.118 -0.283   -0.044  0.003 -0.273
 H          0.098  0.049 -0.009    0.142 -0.315  0.360    0.052 -0.323  0.286
 H          0.129 -0.270  0.427    0.108 -0.208  0.166   -0.019  0.128 -0.406
 TransDip  -0.003 -0.001 -0.069    0.042  0.012  0.001    0.000  0.000  0.178

 Mode:                19                     20                     21
 Frequency:       937.83                 989.75                1030.13
 Force Cnst:      3.5610                 0.7804                 1.1793
 Red. Mass:       6.8719                 1.3522                 1.8862
 IR Active:          YES                    YES                    YES
 IR Intens:       55.457                  5.083                 58.337
 Raman Active:       YES                    YES                    YES
               X      Y      Z        X      Y      Z        X      Y      Z
 C         -0.140 -0.051 -0.001    0.000  0.000  0.047    0.008  0.000  0.000
 O          0.077 -0.058  0.000    0.000  0.000 -0.010   -0.007  0.011  0.000
 O         -0.158  0.100  0.000    0.000  0.000 -0.009    0.016 -0.010  0.000
 C          0.626  0.086  0.000    0.000  0.000 -0.075   -0.069 -0.005  0.000
 C         -0.059 -0.017 -0.036    0.099 -0.019 -0.022   -0.056 -0.086 -0.054
 O         -0.137 -0.031  0.000    0.000  0.000  0.014    0.011  0.005  0.000
 C         -0.003 -0.073  0.000    0.001  0.000  0.041   -0.036 -0.054  0.000
 O         -0.082  0.008  0.000   -0.001 -0.001  0.008    0.117  0.133  0.000
 C         -0.059 -0.018  0.036   -0.098  0.020 -0.022   -0.057 -0.086  0.054
 H          0.049  0.240  0.205    0.024  0.289  0.480    0.056  0.163 -0.040
 H          0.076 -0.131 -0.240    0.146 -0.213 -0.160    0.078 -0.197 -0.449
 H          0.077  0.174  0.166    0.184 -0.137 -0.153    0.043  0.301  0.315
 H          0.048  0.241 -0.205   -0.022 -0.292  0.478    0.055  0.158  0.045
 H          0.077  0.173 -0.164   -0.186  0.137 -0.151    0.039  0.302 -0.312
 H          0.078 -0.132  0.238   -0.148  0.216 -0.162    0.078 -0.197  0.444
 TransDip   0.226 -0.076  0.000    0.001  0.001  0.072   -0.159 -0.186 -0.001

 Mode:                22                     23                     24
 Frequency:      1112.43                1160.53                1244.61
 Force Cnst:      1.8541                 1.7051                 4.4559
 Red. Mass:       2.5430                 2.1488                 4.8822
 IR Active:          YES                    YES                    YES
 IR Intens:       55.720                  8.189                214.135
 Raman Active:       YES                    YES                    YES
               X      Y      Z        X      Y      Z        X      Y      Z
 C          0.000  0.000  0.035   -0.009 -0.007  0.000    0.003 -0.011  0.000
 O          0.000  0.000 -0.009    0.002  0.005  0.000    0.000  0.015  0.000
 O          0.000  0.000 -0.007   -0.010  0.001  0.000    0.006 -0.001  0.000
 C          0.000  0.000 -0.066    0.054 -0.005  0.001   -0.072 -0.031  0.000
 C         -0.059 -0.045 -0.102    0.093 -0.072 -0.034   -0.088 -0.063 -0.024
 O          0.000  0.000  0.015    0.000 -0.016  0.000    0.020 -0.009  0.000
 C          0.000  0.001  0.312   -0.149  0.210 -0.002    0.381  0.317 -0.002
 O          0.000  0.000 -0.060   -0.010 -0.054  0.000   -0.171 -0.160  0.000
 C          0.060  0.044 -0.099    0.092 -0.072  0.035   -0.087 -0.064  0.024
 H         -0.068 -0.241 -0.016    0.013 -0.208 -0.447    0.100  0.301  0.129
 H         -0.053  0.120  0.355   -0.152  0.166 -0.030    0.062 -0.173 -0.260
 H         -0.058 -0.318 -0.337   -0.196  0.226  0.255    0.171  0.225  0.190
 H          0.068  0.239 -0.005    0.014 -0.214  0.447    0.097  0.300 -0.126
 H          0.053  0.330 -0.346   -0.200  0.222 -0.248    0.172  0.222 -0.185
 H          0.051 -0.120  0.357   -0.153  0.167  0.028    0.066 -0.178  0.262
 TransDip   0.001  0.000  0.239    0.053  0.075 -0.002    0.307  0.354  0.001

 Mode:                25                     26                     27
 Frequency:      1328.55                1332.28                1352.68
 Force Cnst:      9.4034                 1.2580                 1.3832
 Red. Mass:       9.0423                 1.2029                 1.2830
 IR Active:          YES                    YES                    YES
 IR Intens:      127.465                 23.156                 58.403
 Raman Active:       YES                    YES                    YES
               X      Y      Z        X      Y      Z        X      Y      Z
 C          0.460  0.342  0.000   -0.003 -0.002  0.000    0.050  0.018  0.000
 O          0.009 -0.392  0.000    0.000  0.002  0.001    0.000 -0.028  0.000
 O         -0.331  0.149  0.000    0.002 -0.001  0.000   -0.036  0.016  0.000
 C         -0.064 -0.019  0.000    0.000  0.000 -0.001    0.005  0.006  0.000
 C          0.005 -0.041  0.041   -0.014  0.054 -0.075   -0.014  0.055 -0.079
 O          0.007 -0.005  0.000    0.000  0.000  0.001   -0.001 -0.007  0.000
 C         -0.004  0.009  0.000    0.000 -0.001 -0.002    0.010  0.018  0.000
 O          0.020  0.008  0.000    0.000  0.000  0.001   -0.010 -0.011  0.000
 C          0.006 -0.045 -0.047    0.014 -0.054 -0.077   -0.013  0.052  0.077
 H          0.077  0.146  0.177    0.097  0.184  0.331   -0.097 -0.180 -0.323
 H         -0.133  0.097  0.229   -0.188  0.146  0.374    0.188 -0.144 -0.368
 H         -0.006  0.220  0.152   -0.052  0.320  0.214    0.049 -0.308 -0.203
 H          0.069  0.134 -0.151   -0.095 -0.185  0.323   -0.100 -0.189  0.330
 H         -0.003  0.196 -0.134    0.051 -0.316  0.208    0.050 -0.317  0.206
 H         -0.120  0.087 -0.199    0.187 -0.145  0.364    0.194 -0.150  0.375
 TransDip   0.314  0.179  0.002   -0.008 -0.003  0.154    0.239 -0.053  0.001

 Mode:                28                     29                     30
 Frequency:      1482.98                1495.70                1500.59
 Force Cnst:      1.3609                 1.3953                 1.4035
 Red. Mass:       1.0503                 1.0586                 1.0579
 IR Active:          YES                    YES                    YES
 IR Intens:        0.348                 13.955                  1.335
 Raman Active:       YES                    YES                    YES
               X      Y      Z        X      Y      Z        X      Y      Z
 C          0.000  0.000  0.000   -0.017  0.016  0.000    0.001 -0.001  0.000
 O          0.000  0.000  0.001    0.001 -0.007  0.000    0.000  0.000 -0.001
 O          0.000  0.000  0.000    0.011 -0.006  0.000    0.000  0.000  0.000
 C          0.000  0.000  0.001    0.002  0.004  0.000    0.000  0.000  0.001
 C          0.027  0.028  0.015   -0.016 -0.030 -0.024    0.036 -0.022 -0.022
 O          0.000  0.000  0.000    0.000 -0.003  0.000    0.000  0.000  0.000
 C          0.000  0.000  0.018   -0.015 -0.016 -0.001    0.001  0.000 -0.007
 O          0.000  0.000 -0.003    0.003  0.003  0.000    0.000  0.000  0.001
 C         -0.028 -0.029  0.015   -0.018 -0.027  0.022   -0.034  0.024 -0.023
 H          0.155  0.346 -0.335    0.163  0.363 -0.292   -0.125 -0.224 -0.103
 H         -0.166  0.117  0.145   -0.218  0.181  0.071    0.302 -0.317  0.304
 H          0.426 -0.092 -0.084    0.335 -0.142 -0.109    0.276  0.215  0.104
 H         -0.149 -0.332 -0.327    0.176  0.387  0.299    0.115  0.204 -0.126
 H         -0.412  0.088 -0.080    0.331 -0.160  0.117   -0.306 -0.211  0.099
 H          0.160 -0.113  0.138   -0.243  0.204 -0.052   -0.292  0.307  0.320
 TransDip  -0.002  0.001  0.019   -0.100  0.065  0.001    0.003 -0.002  0.037

 Mode:                31                     32                     33
 Frequency:      1516.44                1645.04                1735.33
 Force Cnst:      1.4306                18.1809                23.3023
 Red. Mass:       1.0559                11.4029                13.1336
 IR Active:          YES                    YES                    YES
 IR Intens:        6.479                507.837                274.010
 Raman Active:       YES                    YES                    YES
               X      Y      Z        X      Y      Z        X      Y      Z
 C          0.000 -0.003  0.000   -0.467  0.671  0.001   -0.012  0.015  0.000
 O          0.000  0.002  0.000    0.052 -0.297  0.000   -0.003 -0.023  0.000
 O         -0.001  0.001  0.000    0.277 -0.178  0.000    0.027 -0.010  0.000
 C          0.006  0.002  0.000    0.038 -0.041  0.000   -0.124  0.808  0.000
 C         -0.036  0.012  0.017   -0.001  0.013 -0.005    0.006 -0.009  0.011
 O          0.000 -0.002  0.000   -0.010 -0.002  0.000    0.073 -0.558  0.000
 C         -0.026  0.011  0.000    0.009  0.029  0.000    0.012 -0.007  0.000
 O          0.004 -0.001  0.000   -0.001 -0.008  0.000   -0.010 -0.010  0.000
 C         -0.036  0.013 -0.017   -0.001  0.013  0.005    0.006 -0.009 -0.011
 H         -0.084 -0.136 -0.210   -0.061 -0.135  0.027    0.017 -0.014  0.049
 H          0.244 -0.271  0.344    0.124 -0.105 -0.096   -0.001 -0.003  0.010
 H          0.380  0.188  0.085   -0.073  0.015  0.007   -0.034  0.043  0.018
 H         -0.080 -0.130  0.210   -0.061 -0.135 -0.027    0.017 -0.014 -0.049
 H          0.375  0.184 -0.082   -0.073  0.014 -0.007   -0.034  0.043 -0.018
 H          0.235 -0.260 -0.340    0.124 -0.105  0.095   -0.001 -0.002 -0.010
 TransDip   0.071 -0.041  0.000   -0.454  0.561  0.001   -0.168  0.503  0.001

 Mode:                34                     35                     36
 Frequency:      2980.32                2988.21                3038.57
 Force Cnst:      5.4224                 5.4480                 5.9767
 Red. Mass:       1.0361                 1.0355                 1.0987
 IR Active:          YES                    YES                    YES
 IR Intens:       91.511                148.482                 72.931
 Raman Active:       YES                    YES                    YES
               X      Y      Z        X      Y      Z        X      Y      Z
 C          0.000  0.000  0.000    0.000  0.000  0.000    0.000  0.000  0.000
 O          0.000  0.000  0.000    0.000  0.000  0.000    0.000  0.000  0.000
 O          0.000  0.000  0.000    0.000  0.000  0.000    0.000  0.000  0.000
 C          0.000  0.000  0.001    0.002 -0.001  0.000    0.000  0.000  0.000
 C          0.022 -0.015  0.021   -0.023  0.016 -0.025    0.041 -0.035 -0.039
 O          0.000  0.000  0.000    0.000  0.001  0.000    0.000  0.000  0.000
 C          0.000  0.000  0.000   -0.003 -0.001  0.000    0.000  0.000 -0.001
 O          0.000  0.000  0.000    0.001  0.000  0.000    0.000  0.000  0.000
 C         -0.024  0.017  0.023   -0.020  0.015  0.022   -0.039  0.032 -0.036
 H          0.527 -0.233  0.020    0.463 -0.207  0.015    0.361 -0.153  0.000
 H         -0.202 -0.192  0.000   -0.185 -0.177  0.001    0.073  0.091 -0.005
 H         -0.037  0.228 -0.297   -0.032  0.211 -0.279    0.027 -0.319  0.436
 H         -0.472  0.207  0.021    0.511 -0.226 -0.020   -0.395  0.166  0.002
 H          0.033 -0.207 -0.273   -0.035  0.237  0.318   -0.029  0.337  0.469
 H          0.180  0.172  0.000   -0.203 -0.195 -0.002   -0.068 -0.088 -0.007
 TransDip  -0.019  0.012  0.306   -0.335  0.199 -0.017    0.010 -0.009 -0.273

 Mode:                37                     38                     39
 Frequency:      3045.01                3089.48                3096.55
 Force Cnst:      5.9926                 6.1874                 6.2092
 Red. Mass:       1.0969                 1.1002                 1.0991
 IR Active:          YES                    YES                    YES
 IR Intens:      101.244                  3.779                 88.411
 Raman Active:       YES                    YES                    YES
               X      Y      Z        X      Y      Z        X      Y      Z
 C          0.000  0.000  0.000    0.000  0.000  0.000    0.000 -0.001  0.000
 O          0.000  0.000  0.000    0.000  0.000  0.001   -0.001  0.000  0.000
 O          0.000  0.000  0.000    0.000  0.000  0.000    0.000  0.000  0.000
 C          0.001  0.000  0.000    0.000  0.000  0.000    0.000  0.000  0.000
 C         -0.037  0.033  0.036    0.040  0.039  0.012   -0.052 -0.047 -0.014
 O          0.000  0.000  0.000    0.000  0.000  0.000    0.000  0.000  0.000
 C         -0.003  0.003  0.000    0.000  0.000  0.002   -0.003 -0.002  0.000
 O          0.001 -0.001  0.000    0.000  0.000 -0.001    0.001  0.000  0.000
 C         -0.040  0.035 -0.038   -0.051 -0.049  0.015   -0.041 -0.037  0.011
 H          0.400 -0.171 -0.005    0.142 -0.074  0.007    0.123 -0.064  0.005
 H          0.060  0.080 -0.007    0.507  0.507  0.017    0.402  0.403  0.014
 H          0.030 -0.338  0.466   -0.029  0.151 -0.214   -0.021  0.112 -0.159
 H          0.378 -0.160  0.003   -0.113  0.058  0.006    0.156 -0.080 -0.007
 H          0.027 -0.310 -0.435    0.022 -0.115 -0.165   -0.026  0.136  0.197
 H          0.046  0.064  0.008   -0.402 -0.404  0.011    0.508  0.512 -0.016
 TransDip  -0.249  0.205 -0.010   -0.019 -0.029 -0.052   -0.171 -0.248  0.008

 STANDARD THERMODYNAMIC QUANTITIES AT   298.15 K  AND     1.00 ATM

   This Molecule has  1 Imaginary Frequencies
   Zero point vibrational energy:       65.464 kcal/mol

   Atom    1 Element C  Has Mass   12.00000
   Atom    2 Element O  Has Mass   15.99491
   Atom    3 Element O  Has Mass   15.99491
   Atom    4 Element C  Has Mass   12.00000
   Atom    5 Element C  Has Mass   12.00000
   Atom    6 Element O  Has Mass   15.99491
   Atom    7 Element C  Has Mass   12.00000
   Atom    8 Element O  Has Mass   15.99491
   Atom    9 Element C  Has Mass   12.00000
   Atom   10 Element H  Has Mass    1.00783
   Atom   11 Element H  Has Mass    1.00783
   Atom   12 Element H  Has Mass    1.00783
   Atom   13 Element H  Has Mass    1.00783
   Atom   14 Element H  Has Mass    1.00783
   Atom   15 Element H  Has Mass    1.00783
   Molecular Mass:   130.026620 amu
   Principal axes and moments of inertia in amu*Bohr^2:
                             1           2           3
    Eigenvalues --      708.02727  1385.46047  1700.91429
          X               0.99896    -0.04566     0.00001
          Y               0.04566     0.99896    -0.00019
          Z               0.00000     0.00019     1.00000
   Rotational Symmetry Number is   1
   The Molecule is an Asymmetric Top
   Translational Enthalpy:        0.889 kcal/mol
   Rotational Enthalpy:           0.889 kcal/mol
   Vibrational Enthalpy:         69.046 kcal/mol
   gas constant (RT):             0.592 kcal/mol
   Translational Entropy:        40.501  cal/mol.K
   Rotational Entropy:           28.902  cal/mol.K
   Vibrational Entropy:          20.135  cal/mol.K

   Total Enthalpy:               71.416 kcal/mol
   Total Entropy:                89.537  cal/mol.K
Archival summary:
1\1\bt2600-16\FREQ\ProcedureUnspecified\6-31+G*\456(2-,1)\emavera\MonJun519:58:212017MonJun519:58:212017\0\\#,FREQ,ProcedureUnspecified,6-31+G*,\\-2,1\O\C,1,1.22025\C,2,1.60171,1,119.514\O,3,1.33981,2,114.072,1,0.0498123,0\C,3,1.57658,2,106.168,1,123.125,0\H,5,1.097,3,113.588,2,55.992,0\H,5,1.10046,3,108.517,2,-66.4142,0\H,5,1.10172,3,106.962,2,178.065,0\C,3,1.57787,2,105.89,1,-122.826,0\H,9,1.09721,3,113.588,2,-56.0148,0\H,9,1.10037,3,108.48,2,66.3366,0\H,9,1.10183,3,106.986,2,-178.063,0\C,2,1.62136,1,117.38,3,-179.968,0\O,13,1.25924,2,115.408,1,-0.0703863,0\O,13,1.26555,2,117.312,1,179.948,0\\\@

 Total job time:  2952.22s(wall), 2952.39s(cpu) 
 Mon Jun  5 19:58:21 2017

        *************************************************************
        *                                                           *
        *  Thank you very much for using Q-Chem.  Have a nice day.  *
        *                                                           *
        *************************************************************


0 sent ACK to 0 
now end server 0 ... 
cleanup process ... done
