
Running Job 1 of 1 molden_reac_real_coords.qcin
qchem molden_reac_real_coords.qcin_46823.0 /tmp/molden_reac_real_coords.qcin/ 1
/programs/x86_64/lib/qchem-4.3.2/bin/mpi/mpirun_qchem -machinefile /var/spool/torque/aux//123225.vali -np 1 /programs/x86_64/lib/qchem-4.3.2/exe/qcprog.exe molden_reac_real_coords.qcin_46823.0 /tmp/molden_reac_real_coords.qcin/

Process 0 of 1 is on bt2600-16.csail.mit.edu - thread support 0
initial socket setup ...start
initial socket setup ...done 
now start server 0 ... 

cmd = ssh thor /programs/x86_64/lib/qchem-4.3.2/bin/get_hostid 2051607862 > /tmp/molden_reac_real_coords.qcin/lic.dat
                  Welcome to Q-Chem
     A Quantum Leap Into The Future Of Chemistry


 Q-Chem 4.3, Q-Chem, Inc., Pleasanton, CA (2015)

 Y. Shao,  Z. Gan,  E. Epifanovsky,  A. T. B. Gilbert,  M. Wormit,  
 J. Kussmann,  A. W. Lange,  A. Behn,  J. Deng,  X. Feng,  D. Ghosh,  
 M. Goldey,  P. R. Horn,  L. D. Jacobson,  I. Kaliman,  R. Z. Khaliullin,  
 T. Kus,  A. Landau,  J. Liu,  E. I. Proynov,  Y. M. Rhee,  R. M. Richard,  
 M. A. Rohrdanz,  R. P. Steele,  E. J. Sundstrom,  H. L. Woodcock III,  
 P. M. Zimmerman,  D. Zuev,  B. Albrecht,  E. Alguire,  B. Austin,  
 S. A. Baeppler,  G. J. O. Beran,  Y. A. Bernard,  E. Berquist,  
 K. Brandhorst,  K. B. Bravaya,  S. T. Brown,  D. Casanova,  C.-M. Chang,  
 Y. Chen,  S. H. Chien,  K. D. Closser,  D. L. Crittenden,  M. Diedenhofen,  
 R. A. DiStasio Jr.,  H. Do,  A. D. Dutoi,  R. G. Edgar,  P.-T. Fang,  
 S. Fatehi,  Q. Feng,  L. Fusti-Molnar,  A. Ghysels,  
 A. Golubeva-Zadorozhnaya,  J. Gomes,  A. Gunina,  M. W. D. Hanson-Heine,  
 P. H. P. Harbach,  A. W. Hauser,  E. G. Hohenstein,  Z. C. Holden,  K. Hui,  
 T.-C. Jagau,  H. Ji,  B. Kaduk,  K. Khistyaev,  Jaehoon Kim,  Jihan Kim,  
 R. A. King,  P. Klunzinger,  D. Kosenkov,  T. Kowalczyk,  C. M. Krauter,  
 K. U. Lao,  A. Laurent,  K. V. Lawler,  S. Lehtola,  S. V. Levchenko,  
 C. Y. Lin,  Y.-S. Lin,  F. Liu,  E. Livshits,  R. C. Lochan,  A. Luenser,  
 P. Manohar,  S. F. Manzer,  S.-P. Mao,  N. Mardirossian,  A. V. Marenich,  
 L. A. Martinez-Martinez,  S. A. Maurer,  N. J. Mayhall,  K. Nanda,  
 C. M. Oana,  R. Olivares-Amaya,  D. P. O'Neill,  J. A. Parkhill,  
 T. M. Perrine,  R. Peverati,  P. A. Pieniazek,  F. Plasser,  A. Prociuk,  
 D. R. Rehn,  E. Rosta,  N. J. Russ,  N. Sergueev,  S. M. Sharada,  
 S. Sharma,  D. W. Small,  A. Sodt,  T. Stauch,  T. Stein,  D. Stuck,  
 Y.-C. Su,  A. J. W. Thom,  T. Tsuchimochi,  L. Vogt,  O. Vydrov,  T. Wang,  
 M. A. Watson,  J. Wenzel,  A. White,  C. F. Williams,  V. Vanovschi,  
 S. Yeganeh,  S. R. Yost,  Z.-Q. You,  I. Y. Zhang,  X. Zhang,  Y. Zhao,  
 B. R. Brooks,  G. K. L. Chan,  D. M. Chipman,  C. J. Cramer,  
 W. A. Goddard III,  M. S. Gordon,  W. J. Hehre,  A. Klamt,  
 H. F. Schaefer III,  M. W. Schmidt,  C. D. Sherrill,  D. G. Truhlar,  
 A. Warshel,  X. Xu,  A. Aspuru-Guzik,  R. Baer,  A. T. Bell,  N. A. Besley,  
 J.-D. Chai,  A. Dreuw,  B. D. Dunietz,  T. R. Furlani,  S. R. Gwaltney,  
 C.-P. Hsu,  Y. Jung,  J. Kong,  D. S. Lambrecht,  W. Liang,  C. Ochsenfeld,  
 V. A. Rassolov,  L. V. Slipchenko,  J. E. Subotnik,  T. Van Voorhis,  
 J. M. Herbert,  A. I. Krylov,  P. M. W. Gill,  M. Head-Gordon

 Contributors to earlier versions of Q-Chem not listed above: 
 R. D. Adamson,  J. Baker,  E. F. C. Byrd,  A. K. Chakraborty,  C.-L. Cheng,  
 H. Dachsel,  R. J. Doerksen,  G. Hawkins,  A. Heyden,  S. Hirata,  
 G. Kedziora,  F. J. Keil,  C. Kelley,  P. P. Korambath,  W. Kurlancheek,  
 A. M. Lee,  M. S. Lee,  D. Liotard,  I. Lotan,  P. E. Maslen,  N. Nair,  
 D. Neuhauser,  R. Olson,  B. Peters,  J. Ritchie,  N. E. Schultz,  
 N. Shenvi,  A. C. Simmonett,  K. S. Thanthiriwatte,  Q. Wu,  W. Zhang

 Please cite Q-Chem as follows:
 Y. Shao et al., Mol. Phys. 113, 184-215 (2015)
 DOI: 10.1080/00268976.2014.952696

 Q-Chem 4.3.0 for Intel X86 Linux

 Parts of Q-Chem use Armadillo 5.200.1 (Boston Tea Smuggler).
 http://arma.sourceforge.net/

 Q-Chem begins on Tue Jun 27 15:35:57 2017  

Host: 
0

     Scratch files written to /tmp/molden_reac_real_coords.qcin//
 Oct1215 13750_ 19228  19214 4150   
 Parallel job on  1  processors
Processing $rem in /programs/x86_64/lib/qchem-4.3.2/config/preferences.
 MEM_TOTAL  2000 

Checking the input file for inconsistencies... 	...done.

--------------------------------------------------------------
User input:
--------------------------------------------------------------
$molecule
-2 1
C         1.355   0.243   0.054
O         2.272   0.275  -0.817
O         1.349   0.869   1.161
C         0.080  -0.706  -0.225
C        -0.233  -0.676  -1.787
O         0.250  -1.961   0.194
C        -1.149   0.042   0.397
O        -2.005  -0.481   1.106
C        -1.356   1.531   0.038
H        -0.542   1.947  -0.559
H        -1.428   2.100   0.973
H        -2.309   1.632  -0.505
H        -1.086  -1.345  -1.977
H         0.664  -1.074  -2.271
H        -0.440   0.321  -2.215
$end


$rem
EXCHANGE         B3LYP
BASIS            6-31+G(d)
PRINT_ORBITALS   true
MOLDEN_FORMAT    true
--------------------------------------------------------------
 ----------------------------------------------------------------
             Standard Nuclear Orientation (Angstroms)
    I     Atom           X                Y                Z
 ----------------------------------------------------------------
    1      C      -1.2477750392    -0.5098194515     0.2067667831
    2      O      -2.3536009518    -0.2831958904    -0.3644991906
    3      O      -0.9390487759    -1.5594031735     0.8551672033
    4      C      -0.1202200168     0.6434859306     0.1560384179
    5      C      -0.2119256696     1.3701138768    -1.2589933488
    6      O      -0.2240396112     1.5318978623     1.1457008510
    7      C       1.2525026691    -0.1092384687     0.0794394208
    8      O       2.2405357901     0.1597912201     0.7579374520
    9      C       1.4157696060    -1.2248956687    -0.9776811585
   10      H       0.4928084345    -1.4440925432    -1.5181961038
   11      H       1.7426952934    -2.1366761533    -0.4629521591
   12      H       2.2032996084    -0.9242169654    -1.6866577538
   13      H       0.5403472050     2.1731899483    -1.2795929984
   14      H      -1.2160565080     1.8029947512    -1.2990484109
   15      H      -0.0839749396     0.7182035040    -2.1414237860
 ----------------------------------------------------------------
 Molecular Point Group                 C1    NOp =  1
 Largest Abelian Subgroup              C1    NOp =  1
 Nuclear Repulsion Energy =   452.4255589529 hartrees
 There are       35 alpha and       35 beta electrons
 Requested basis set is 6-31+G(d)
 There are 57 shells and 183 basis functions

 Total QAlloc Memory Limit   2000 MB
 Mega-Array Size        61 MB
 MEM_STATIC part        62 MB

                       Distance Matrix (Angstroms)
             C (  1)   O (  2)   O (  3)   C (  4)   C (  5)   O (  6)
   O (  2)  1.265130
   O (  3)  1.271755  2.262134
   C (  4)  1.613712  2.473396  2.451934
   C (  5)  2.599151  2.849619  3.685167  1.593334
   O (  6)  2.469462  3.179670  3.186187  1.333974  2.410161
   C (  7)  2.535363  3.637489  2.740005  1.567428  2.474760  2.451616
   O (  8)  3.594507  4.749968  3.615915  2.483830  3.398155  2.847309
   C (  9)  3.001453  3.933312  3.002732  2.671223  3.076134  3.846770
   H ( 10)  2.622593  3.283404  2.774232  2.745332  2.912661  4.057923
   H ( 11)  3.469596  4.497191  3.043425  3.403367  4.092896  4.462538
   H ( 12)  3.958118  4.787938  4.091294  3.354395  3.358596  4.466176
   H ( 13)  3.550378  3.904634  4.547314  2.199405  1.100577  2.622517
   H ( 14)  2.759999  2.553347  4.002886  2.159305  1.094198  2.652242
   H ( 15)  2.894213  3.051469  3.859819  2.298963  1.104555  3.389234
             C (  7)   O (  8)   C (  9)   H ( 10)   H ( 11)   H ( 12)
   O (  8)  1.228392
   C (  9)  1.545591  2.368537
   H ( 10)  2.216170  3.287519  1.091815
   H ( 11)  2.155222  2.648052  1.096891  1.776353
   H ( 12)  2.165018  2.674417  1.101480  1.795670  1.783163
   H ( 13)  2.750203  3.331058  3.522002  3.625455  4.548350  3.539074
   H ( 14)  3.413305  4.345036  4.024662  3.675843  4.997427  4.390891
   H ( 15)  2.720858  3.757854  2.716462  2.323062  3.782106  2.852364
             H ( 13)   H ( 14)
   H ( 14)  1.795098
   H ( 15)  1.802641  1.779881
 
 A cutoff of  1.0D-08 yielded   1487 shell pairs
 There are     16114 function pairs
 
 -------------------------------------------------------
 OpenMP Integral Computing Module                       
 Release: version 1.0, May 2013, Q-Chem Inc. Pittsburgh 
 -------------------------------------------------------
 Integral Job Info:
 Integral job number is                      11
 Integral operator is                         1
 short-range coefficients                     0
 long-range coefficients              100000000
 Omega coefficients                           0
 if combine SR and LR in K                    0
 Integral screening is                        0
 Integral computing path is                   2
 max size of driver memory is            800000
 size of driver memory is                593474
 size of scratch memory is              2260544
 max col of scratch BK array               1296
 max len of scratch array in speh3          155
 max len of scratch index in speh4           18
 max int batch size is                      520
 min int batch size is                       52
 fixed nKL is                                52
 max L of basis functions is                  2
 order of int derivative is                   0
 number of shells is                         57
 number of basis is                         183
 number of cartesian basis is               183
 number of contracted shell pairs          1487
 number of primitive shell pairs           4936
 maxK2 (contraction) of shell pair           36
 max number of K2 of shell pair               1
 max number of CS2 of shell pair            180
 max number of PS2 of shell pair           1068
 mem total for path MDJ                   42632
 -------------------------------------------------------
 Smallest overlap matrix eigenvalue = 2.59E-05

 Q-Chem warning in module /home/scratch/svnadmin/13750_zgan/qchem/stvman/mkSTV.C, line 251:

 Overlap eigenvalue is smaller than square root of threshold


 Scale SEOQF with 1.000000e-01/1.000000e-01/1.000000e-01

 Standard Electronic Orientation quadrupole field applied
 Nucleus-field energy     =     0.0000000050 hartrees
 Guess from superposition of atomic densities
 Warning:  Energy on first SCF cycle will be non-variational
 A restricted hybrid HF-DFT SCF calculation will be
 performed using Pulay DIIS extrapolation
 Exchange:     0.2000 Hartree-Fock + 0.0800 Slater + 0.7200 B88
 Correlation:  0.1900 VWN1RPA + 0.8100 LYP
 Using SG-1 standard quadrature grid
 SCF converges when DIIS error is below 1.0E-05
 CPU 0.00 s  wall 0.00 s
 Inaccurate integrated density:
   Number of electrons =    70
   Numerical integral  =    68.000047833042
   Relative error      =    -2.8570745242 %
 CPU 4.47 s  wall 4.47 s
 ---------------------------------------
  Cycle       Energy         DIIS Error
 ---------------------------------------
    1    -496.1553166055      4.84E-02
 CPU 0.00 s  wall 0.00 s
 CPU 4.74 s  wall 4.74 s
    2    -494.5648147069      1.07E-02
 CPU 0.00 s  wall 0.00 s
 CPU 4.76 s  wall 4.76 s
    3    -489.1761915306      2.84E-02
 CPU 0.00 s  wall 0.00 s
 CPU 4.75 s  wall 4.75 s
    4    -494.6260597729      9.78E-03
 CPU 0.00 s  wall 0.00 s
 CPU 4.67 s  wall 4.67 s
    5    -494.9611295761      2.69E-03
 CPU 0.00 s  wall 0.00 s
 CPU 4.65 s  wall 4.65 s
    6    -494.9906010996      1.71E-03
 CPU 0.00 s  wall 0.00 s
 CPU 4.60 s  wall 4.60 s
    7    -495.0001940513      6.55E-04
 CPU 0.00 s  wall 0.00 s
 CPU 4.48 s  wall 4.48 s
    8    -495.0012974732      3.41E-04
 CPU 0.00 s  wall 0.00 s
 CPU 4.44 s  wall 4.44 s
    9    -495.0016809051      7.15E-05
 CPU 0.00 s  wall 0.00 s
 CPU 4.13 s  wall 4.13 s
   10    -495.0016942627      3.76E-05
 CPU 0.00 s  wall 0.00 s
 CPU 3.95 s  wall 3.95 s
   11    -495.0016983796      1.16E-05
 CPU 0.00 s  wall 0.00 s
 CPU 3.80 s  wall 3.80 s
   12    -495.0016992627      4.12E-06 Convergence criterion met
 ---------------------------------------
 SCF time:  CPU 165.82 s  wall 158.71 s
 SCF   energy in the final basis set = -495.0016992627
 Total energy in the final basis set = -495.0016992627
 
 --------------------------------------------------------------
 
                    Orbital Energies (a.u.)
 --------------------------------------------------------------
 
 Alpha MOs
 -- Occupied --
-18.853 -18.778 -18.776 -18.731  -9.976  -9.948  -9.920  -9.915
 -9.883  -0.743  -0.697  -0.610  -0.602  -0.466  -0.412  -0.320
 -0.230  -0.183  -0.165  -0.151  -0.140  -0.126  -0.112  -0.094
 -0.078  -0.070  -0.060  -0.054  -0.025   0.039   0.058   0.069
  0.088   0.126   0.139
 -- Virtual --
  0.218   0.238   0.260   0.266   0.279   0.293   0.302   0.304
  0.307   0.320   0.328   0.337   0.345   0.352   0.360   0.374
  0.388   0.389   0.392   0.409   0.416   0.463   0.482   0.496
  0.504   0.510   0.512   0.527   0.540   0.554   0.555   0.563
  0.569   0.578   0.585   0.592   0.606   0.608   0.617   0.626
  0.633   0.651   0.656   0.661   0.664   0.674   0.680   0.718
  0.738   0.789   0.813   0.861   0.923   0.964   0.992   0.997
  1.038   1.050   1.067   1.084   1.126   1.142   1.152   1.183
  1.196   1.228   1.255   1.285   1.289   1.346   1.370   1.390
  1.409   1.435   1.443   1.487   1.543   1.580   1.592   1.616
  1.620   1.636   1.662   1.674   1.678   1.684   1.717   1.747
  1.756   1.776   1.791   1.832   1.898   1.913   1.939   1.962
  1.990   2.031   2.063   2.073   2.095   2.106   2.154   2.184
  2.189   2.209   2.227   2.254   2.290   2.305   2.319   2.353
  2.389   2.399   2.413   2.460   2.479   2.537   2.550   2.573
  2.629   2.636   2.662   2.697   2.749   2.794   2.853   2.910
  2.965   2.989   3.024   3.088   3.171   3.297   3.349   3.395
  3.455   3.510   3.583   4.456   4.528   4.605   4.628   4.754
  4.769   4.853   4.991   5.096
 --------------------------------------------------------------
 

                        RESTRICTED (RHF) MOLECULAR ORBITAL COEFFICIENTS
                         1         2         3         4         5         6
 eigenvalues:        -18.853   -18.778   -18.776   -18.731    -9.976    -9.948
   1  C 1   s        0.00002  -0.00003  -0.00003   0.00001  -0.00009   0.99322
   2  C 1   s        0.00009   0.00035   0.00033   0.00009  -0.00012   0.04926
   3  C 1   px       0.00002  -0.00032   0.00009   0.00003  -0.00004  -0.00051
   4  C 1   py       0.00000   0.00006  -0.00032   0.00002  -0.00001  -0.00053
   5  C 1   pz      -0.00002  -0.00017   0.00020  -0.00002  -0.00003   0.00004
   6  C 1   s       -0.00056   0.00028   0.00028  -0.00061  -0.00156  -0.01581
   7  C 1   px      -0.00039   0.00060  -0.00048  -0.00017   0.00126  -0.00171
   8  C 1   py       0.00013  -0.00043   0.00027  -0.00006  -0.00119  -0.00076
   9  C 1   pz      -0.00008   0.00055  -0.00026   0.00028   0.00160  -0.00023
  10  C 1   s       -0.00519   0.00844   0.01296  -0.00816  -0.01536  -0.00918
  11  C 1   px      -0.00105  -0.00035   0.00426  -0.00132  -0.00247  -0.00206
  12  C 1   py      -0.00069   0.00246  -0.00043  -0.00145  -0.00193  -0.00134
  13  C 1   pz       0.00038  -0.00188   0.00105  -0.00038   0.00141   0.00053
  14  C 1   dxx      0.00000  -0.00019  -0.00016  -0.00001  -0.00007  -0.00828
  15  C 1   dxy      0.00000   0.00004   0.00002  -0.00001  -0.00001  -0.00034
  16  C 1   dyy      0.00002  -0.00014  -0.00015  -0.00003  -0.00002  -0.00842
  17  C 1   dxz      0.00000  -0.00003  -0.00001  -0.00002  -0.00007   0.00048
  18  C 1   dyz      0.00000   0.00000   0.00001  -0.00001   0.00003  -0.00045
  19  C 1   dzz      0.00003  -0.00018  -0.00018   0.00000  -0.00011  -0.00857
  20  O 1   s        0.00000   0.99256   0.00164   0.00001  -0.00005  -0.00005
  21  O 1   s       -0.00002   0.02511   0.00012  -0.00002  -0.00027   0.00043
  22  O 1   px       0.00000   0.00088   0.00000  -0.00001  -0.00001  -0.00008
  23  O 1   py       0.00000  -0.00020   0.00000   0.00000   0.00000   0.00002
  24  O 1   pz       0.00000   0.00046   0.00002   0.00000  -0.00003  -0.00004
  25  O 1   s        0.00004   0.01589  -0.00024   0.00009   0.00203  -0.00196
  26  O 1   px      -0.00002  -0.00025   0.00004   0.00014   0.00072  -0.00097
  27  O 1   py       0.00001   0.00020   0.00003  -0.00002  -0.00005   0.00023
  28  O 1   pz      -0.00001  -0.00026  -0.00009   0.00003   0.00036  -0.00052
  29  O 1   s       -0.00051  -0.00834  -0.00033   0.00006  -0.00056   0.00391
  30  O 1   px      -0.00015  -0.00062  -0.00062  -0.00017  -0.00057   0.00209
  31  O 1   py      -0.00012  -0.00017  -0.00004  -0.00004  -0.00037   0.00023
  32  O 1   pz      -0.00018   0.00007   0.00009  -0.00003  -0.00007   0.00068
  33  O 1   dxx     -0.00001  -0.00869   0.00005   0.00002  -0.00004  -0.00013
  34  O 1   dxy      0.00000   0.00003   0.00007   0.00001  -0.00002   0.00010
  35  O 1   dyy     -0.00002  -0.00866  -0.00003   0.00000  -0.00014   0.00036
  36  O 1   dxz      0.00000  -0.00002  -0.00003   0.00002   0.00006  -0.00034
  37  O 1   dyz      0.00000   0.00001   0.00006   0.00002   0.00002   0.00010
  38  O 1   dzz     -0.00002  -0.00868  -0.00001  -0.00002  -0.00015   0.00028
  39  O 2   s        0.00000  -0.00161   0.99256   0.00002   0.00000  -0.00005
  40  O 2   s        0.00000   0.00007   0.02510   0.00000   0.00001   0.00034
  41  O 2   px       0.00000  -0.00001  -0.00028   0.00000  -0.00006   0.00003
  42  O 2   py       0.00000   0.00001   0.00082  -0.00001  -0.00002  -0.00008
  43  O 2   pz       0.00000  -0.00001  -0.00053   0.00001   0.00004   0.00004
  44  O 2   s        0.00011  -0.00052   0.01584  -0.00006  -0.00073  -0.00109
  45  O 2   px      -0.00001   0.00007   0.00034   0.00000   0.00006   0.00029
  46  O 2   py       0.00009  -0.00009  -0.00038   0.00008  -0.00016  -0.00061
  47  O 2   pz      -0.00004   0.00006   0.00028  -0.00008  -0.00008   0.00046
  48  O 2   s        0.00032  -0.00041  -0.00908   0.00005  -0.00066   0.00415
  49  O 2   px      -0.00014  -0.00048  -0.00061  -0.00004   0.00010  -0.00020
  50  O 2   py       0.00003  -0.00034  -0.00037  -0.00023  -0.00052   0.00207
  51  O 2   pz      -0.00011   0.00011   0.00023   0.00004   0.00008  -0.00106
  52  O 2   dxx     -0.00001   0.00000  -0.00868  -0.00002   0.00003   0.00027
  53  O 2   dxy      0.00001   0.00006   0.00004   0.00001   0.00002   0.00014
  54  O 2   dyy      0.00001   0.00009  -0.00871   0.00003  -0.00005  -0.00010
  55  O 2   dxz      0.00000  -0.00006  -0.00002   0.00001   0.00000  -0.00013
  56  O 2   dyz     -0.00001   0.00001   0.00004  -0.00001  -0.00008   0.00035
  57  O 2   dzz      0.00000   0.00004  -0.00869   0.00001  -0.00006   0.00023
  58  C 2   s        0.00000   0.00000  -0.00001  -0.00004   0.00134   0.00183
  59  C 2   s        0.00000   0.00003   0.00002   0.00016  -0.00003  -0.00004
  60  C 2   px      -0.00001   0.00002   0.00001  -0.00003   0.00007  -0.00002
  61  C 2   py       0.00001  -0.00003   0.00000   0.00027  -0.00004   0.00002
  62  C 2   pz       0.00001  -0.00001  -0.00001   0.00030   0.00004  -0.00001
  63  C 2   s        0.00007  -0.00001   0.00026   0.00058   0.00307   0.00313
  64  C 2   px       0.00006  -0.00017   0.00008   0.00008   0.00042  -0.00069
  65  C 2   py       0.00022   0.00013  -0.00054  -0.00022  -0.00132  -0.00075
  66  C 2   pz       0.00027  -0.00032  -0.00027  -0.00026  -0.00138   0.00059
  67  C 2   s        0.01487  -0.00751  -0.01502   0.03794   0.05668   0.01928
  68  C 2   px      -0.00130   0.00050  -0.00157   0.00238   0.00063   0.00128
  69  C 2   py      -0.00045  -0.00001   0.00467  -0.00040  -0.00787  -0.00037
  70  C 2   pz      -0.00340  -0.00030  -0.00221   0.00066  -0.00917  -0.00272
  71  C 2   dxx     -0.00001  -0.00004   0.00000  -0.00010  -0.00027  -0.00024
  72  C 2   dxy     -0.00001  -0.00001  -0.00001  -0.00001   0.00011  -0.00013
  73  C 2   dyy      0.00004   0.00000  -0.00006  -0.00001  -0.00016  -0.00026
  74  C 2   dxz     -0.00002  -0.00001   0.00000  -0.00001   0.00000   0.00002
  75  C 2   dyz      0.00001  -0.00002   0.00001   0.00013  -0.00001   0.00001
  76  C 2   dzz      0.00002  -0.00001  -0.00002   0.00002  -0.00014  -0.00012
  77  C 3   s        0.00001   0.00002   0.00000   0.00002  -0.00008  -0.00003
  78  C 3   s        0.00006   0.00004   0.00001   0.00015  -0.00025  -0.00003
  79  C 3   px       0.00000  -0.00001   0.00000   0.00000  -0.00011   0.00006
  80  C 3   py      -0.00002   0.00000   0.00001  -0.00003   0.00005   0.00003
  81  C 3   pz       0.00001   0.00001   0.00001  -0.00001  -0.00006  -0.00003
  82  C 3   s       -0.00035  -0.00052  -0.00014  -0.00056   0.00007   0.00002
  83  C 3   px      -0.00014  -0.00005   0.00006  -0.00004   0.00100  -0.00047
  84  C 3   py       0.00018  -0.00011   0.00013   0.00034   0.00035   0.00025
  85  C 3   pz      -0.00017  -0.00020  -0.00004  -0.00006  -0.00039  -0.00039
  86  C 3   s       -0.00851  -0.00048  -0.00407  -0.00840  -0.01571  -0.00669
  87  C 3   px      -0.00043   0.00032  -0.00039  -0.00018  -0.00002  -0.00058
  88  C 3   py       0.00107   0.00035   0.00032   0.00056   0.00260   0.00068
  89  C 3   pz      -0.00192   0.00013  -0.00103  -0.00220  -0.00291  -0.00155
  90  C 3   dxx      0.00002   0.00004   0.00000   0.00003  -0.00005  -0.00002
  91  C 3   dxy      0.00002   0.00003   0.00000   0.00000  -0.00007   0.00004
  92  C 3   dyy      0.00000   0.00004  -0.00002   0.00000  -0.00008  -0.00003
  93  C 3   dxz      0.00000  -0.00001   0.00001   0.00000   0.00007  -0.00002
  94  C 3   dyz      0.00000   0.00001   0.00002  -0.00001   0.00001  -0.00001
  95  C 3   dzz      0.00000   0.00003   0.00002  -0.00006  -0.00009  -0.00005
  96  O 3   s        0.00001  -0.00002  -0.00002   0.99256  -0.00006   0.00000
  97  O 3   s        0.00005  -0.00002  -0.00002   0.02501  -0.00029   0.00001
  98  O 3   px       0.00001   0.00001   0.00001   0.00008  -0.00002   0.00001
  99  O 3   py      -0.00001   0.00002   0.00001  -0.00066   0.00003   0.00003
 100  O 3   pz      -0.00001   0.00001   0.00001  -0.00077   0.00001   0.00001
 101  O 3   s       -0.00039   0.00000   0.00008   0.01597   0.00170  -0.00060
 102  O 3   px       0.00005  -0.00003  -0.00006  -0.00006   0.00008   0.00004
 103  O 3   py       0.00009  -0.00015  -0.00009   0.00051  -0.00025   0.00021
 104  O 3   pz       0.00012  -0.00006  -0.00016   0.00062  -0.00014   0.00011
 105  O 3   s       -0.00082   0.00047   0.00090  -0.01151  -0.00519  -0.00141
 106  O 3   px       0.00018   0.00006   0.00022  -0.00009  -0.00068  -0.00011
 107  O 3   py      -0.00003   0.00019  -0.00028   0.00042   0.00157  -0.00011
 108  O 3   pz       0.00015  -0.00007   0.00001   0.00040   0.00128   0.00033
 109  O 3   dxx      0.00008   0.00000  -0.00003  -0.00865  -0.00014   0.00001
 110  O 3   dxy     -0.00002   0.00000   0.00001   0.00001  -0.00004   0.00007
 111  O 3   dyy      0.00004  -0.00001   0.00002  -0.00875  -0.00015   0.00001
 112  O 3   dxz      0.00000   0.00001   0.00000   0.00002   0.00000  -0.00003
 113  O 3   dyz     -0.00002   0.00003   0.00001  -0.00012   0.00005   0.00005
 114  O 3   dzz      0.00002  -0.00001   0.00000  -0.00878  -0.00016  -0.00002
 115  C 4   s       -0.00001   0.00000   0.00001   0.00002   0.99321   0.00003
 116  C 4   s        0.00040   0.00002   0.00002   0.00014   0.04982  -0.00009
 117  C 4   px       0.00025  -0.00002  -0.00003  -0.00002   0.00125   0.00002
 118  C 4   py       0.00007   0.00000  -0.00002   0.00001  -0.00010  -0.00002
 119  C 4   pz       0.00017  -0.00001   0.00000   0.00000   0.00040   0.00000
 120  C 4   s       -0.00046   0.00004   0.00013  -0.00066  -0.01670  -0.00157
 121  C 4   px      -0.00090   0.00019   0.00072   0.00025   0.00291  -0.00084
 122  C 4   py      -0.00056   0.00003   0.00005  -0.00018   0.00155  -0.00055
 123  C 4   pz      -0.00094   0.00013   0.00051  -0.00004   0.00317  -0.00113
 124  C 4   s        0.00520   0.00484   0.01380  -0.01193  -0.03095   0.00019
 125  C 4   px       0.00194  -0.00194  -0.00377   0.00416   0.00607  -0.00023
 126  C 4   py       0.00033   0.00023   0.00081  -0.00397   0.00202  -0.00209
 127  C 4   pz       0.00099   0.00049  -0.00021  -0.00246   0.00434  -0.00117
 128  C 4   dxx     -0.00034   0.00000   0.00006   0.00002  -0.00812  -0.00006
 129  C 4   dxy     -0.00005  -0.00001   0.00003   0.00002   0.00020   0.00003
 130  C 4   dyy     -0.00016   0.00001   0.00002   0.00000  -0.00886  -0.00001
 131  C 4   dxz     -0.00014   0.00000   0.00002   0.00001   0.00060  -0.00010
 132  C 4   dyz     -0.00002   0.00001  -0.00001  -0.00003   0.00022  -0.00002
 133  C 4   dzz     -0.00023   0.00001   0.00005   0.00002  -0.00854  -0.00012
 134  O 4   s        0.99255  -0.00001   0.00001   0.00001  -0.00005  -0.00007
 135  O 4   s        0.02508  -0.00003   0.00006  -0.00001   0.00069  -0.00033
 136  O 4   px      -0.00087   0.00001   0.00001  -0.00001   0.00007   0.00001
 137  O 4   py      -0.00031   0.00000   0.00000   0.00001   0.00001   0.00001
 138  O 4   pz      -0.00068  -0.00001   0.00000   0.00001   0.00005   0.00001
 139  O 4   s        0.01637   0.00011  -0.00052  -0.00002  -0.00425   0.00227
 140  O 4   px       0.00005  -0.00002   0.00017  -0.00006   0.00194  -0.00068
 141  O 4   py       0.00014  -0.00001   0.00010   0.00002   0.00053  -0.00018
 142  O 4   pz       0.00015   0.00005   0.00014  -0.00003   0.00119  -0.00034
 143  O 4   s       -0.00794  -0.00081  -0.00122   0.00024   0.00418  -0.00105
 144  O 4   px       0.00033   0.00042   0.00060  -0.00017  -0.00279   0.00076
 145  O 4   py      -0.00016   0.00010   0.00001   0.00023  -0.00097   0.00030
 146  O 4   pz       0.00009  -0.00004   0.00017   0.00029  -0.00187   0.00031
 147  O 4   dxx     -0.00864  -0.00002   0.00000   0.00003  -0.00004  -0.00011
 148  O 4   dxy      0.00001   0.00000  -0.00001  -0.00003  -0.00020   0.00003
 149  O 4   dyy     -0.00870  -0.00003   0.00003   0.00001   0.00048  -0.00018
 150  O 4   dxz      0.00004   0.00000  -0.00002  -0.00002  -0.00049   0.00006
 151  O 4   dyz      0.00002   0.00000  -0.00001   0.00001  -0.00018   0.00001
 152  O 4   dzz     -0.00868  -0.00002   0.00002   0.00000   0.00027  -0.00018
 153  C 5   s        0.00002   0.00001   0.00000   0.00001   0.00165  -0.00002
 154  C 5   s        0.00016   0.00003  -0.00004   0.00005  -0.00009   0.00004
 155  C 5   px      -0.00003   0.00000  -0.00001  -0.00001   0.00000   0.00005
 156  C 5   py      -0.00001   0.00001   0.00002   0.00003  -0.00001   0.00000
 157  C 5   pz      -0.00003   0.00001   0.00002   0.00001  -0.00002  -0.00006
 158  C 5   s       -0.00074  -0.00011   0.00016  -0.00032   0.00532  -0.00056
 159  C 5   px       0.00042   0.00000  -0.00025   0.00008  -0.00123   0.00040
 160  C 5   py      -0.00024  -0.00008  -0.00006  -0.00018   0.00128  -0.00038
 161  C 5   pz      -0.00002  -0.00005   0.00004  -0.00006   0.00086   0.00017
 162  C 5   s       -0.00179  -0.00124  -0.00342  -0.00358   0.01043  -0.00274
 163  C 5   px      -0.00054   0.00078   0.00116  -0.00043  -0.00116   0.00016
 164  C 5   py      -0.00035  -0.00013  -0.00031  -0.00054   0.00136  -0.00049
 165  C 5   pz      -0.00052  -0.00009  -0.00043  -0.00057   0.00116  -0.00029
 166  C 5   dxx     -0.00002   0.00001   0.00004   0.00002  -0.00008  -0.00004
 167  C 5   dxy     -0.00001   0.00000  -0.00001   0.00001  -0.00002   0.00003
 168  C 5   dyy     -0.00001   0.00001   0.00001   0.00003  -0.00029  -0.00003
 169  C 5   dxz     -0.00003   0.00000  -0.00004   0.00000  -0.00002   0.00005
 170  C 5   dyz     -0.00005   0.00000  -0.00001   0.00000  -0.00024   0.00003
 171  C 5   dzz     -0.00003   0.00001   0.00000   0.00003  -0.00034   0.00001
 172  H 1   s        0.00007   0.00000   0.00001   0.00002  -0.00009  -0.00004
 173  H 1   s        0.00004  -0.00019  -0.00024  -0.00013  -0.00190   0.00000
 174  H 2   s        0.00001   0.00000  -0.00002   0.00000  -0.00015   0.00005
 175  H 2   s       -0.00001  -0.00001  -0.00001  -0.00002  -0.00026  -0.00057
 176  H 3   s        0.00001   0.00000   0.00001   0.00000  -0.00016   0.00003
 177  H 3   s        0.00001   0.00003   0.00004   0.00006  -0.00019  -0.00007
 178  H 4   s       -0.00003   0.00003  -0.00001   0.00002  -0.00007   0.00002
 179  H 4   s        0.00005   0.00007   0.00002  -0.00016  -0.00114  -0.00015
 180  H 5   s        0.00001   0.00003   0.00000   0.00001   0.00007   0.00001
 181  H 5   s       -0.00017   0.00028   0.00011  -0.00009  -0.00016  -0.00099
 182  H 6   s        0.00001  -0.00001   0.00000   0.00006   0.00001   0.00005
 183  H 6   s       -0.00005  -0.00012  -0.00003  -0.00013  -0.00114  -0.00071
                         7         8         9        10        11        12
 eigenvalues:         -9.920    -9.915    -9.883    -0.743    -0.697    -0.610
   1  C 1   s        0.00003  -0.00206   0.00001  -0.00907  -0.13577  -0.00147
   2  C 1   s        0.00005  -0.00055  -0.00001   0.01999   0.26342   0.00225
   3  C 1   px       0.00001   0.00006   0.00001   0.00225  -0.06688   0.16698
   4  C 1   py       0.00004   0.00006  -0.00004  -0.00215  -0.06285  -0.14753
   5  C 1   pz       0.00000   0.00001   0.00004   0.00108   0.00281   0.14213
   6  C 1   s       -0.00076   0.00551  -0.00134   0.00549   0.07545   0.00544
   7  C 1   px      -0.00018   0.00426  -0.00117  -0.01522   0.03849  -0.03626
   8  C 1   py       0.00036   0.00353   0.00072   0.01577   0.02320   0.03461
   9  C 1   pz       0.00006  -0.00060  -0.00053  -0.01356   0.00433  -0.03392
  10  C 1   s       -0.01127  -0.00010  -0.01281  -0.02834   0.23068   0.07253
  11  C 1   px      -0.00254  -0.00017  -0.00233  -0.00733   0.04993   0.04457
  12  C 1   py      -0.00148  -0.00019  -0.00143  -0.00631   0.03659  -0.01960
  13  C 1   pz       0.00089  -0.00038   0.00032   0.00326  -0.00899   0.02217
  14  C 1   dxx     -0.00007  -0.00017  -0.00004   0.00062  -0.00202  -0.02234
  15  C 1   dxy      0.00003  -0.00006   0.00004   0.00011  -0.00936  -0.00165
  16  C 1   dyy     -0.00002  -0.00020  -0.00010   0.00012  -0.00511   0.02117
  17  C 1   dxz     -0.00002   0.00003   0.00001   0.00089   0.01483  -0.01021
  18  C 1   dyz      0.00001  -0.00006   0.00002  -0.00084  -0.01379  -0.01276
  19  C 1   dzz     -0.00001  -0.00015   0.00000  -0.00035  -0.01194   0.00154
  20  O 1   s       -0.00002  -0.00003  -0.00002  -0.00571  -0.13325   0.15175
  21  O 1   s       -0.00008  -0.00017  -0.00005   0.01416   0.28587  -0.32484
  22  O 1   px       0.00000  -0.00006  -0.00004   0.00487   0.09619  -0.08666
  23  O 1   py       0.00000   0.00003  -0.00002  -0.00102  -0.02543   0.00585
  24  O 1   pz       0.00000  -0.00006   0.00003   0.00253   0.05160  -0.03780
  25  O 1   s        0.00037   0.00059  -0.00005  -0.00070   0.29534  -0.36543
  26  O 1   px       0.00016   0.00006   0.00000  -0.00251   0.04247  -0.03817
  27  O 1   py      -0.00008  -0.00061  -0.00001  -0.00083  -0.01522  -0.00342
  28  O 1   pz       0.00007   0.00046  -0.00006  -0.00102   0.02349  -0.01246
  29  O 1   s       -0.00009   0.00238  -0.00140  -0.00760  -0.02511   0.00349
  30  O 1   px      -0.00028   0.00066  -0.00069  -0.00216  -0.00884  -0.01083
  31  O 1   py       0.00002  -0.00009  -0.00028   0.00038  -0.00391   0.00517
  32  O 1   pz      -0.00035   0.00020  -0.00042  -0.00330   0.00223  -0.00651
  33  O 1   dxx     -0.00002  -0.00013  -0.00003   0.00053   0.00508  -0.00058
  34  O 1   dxy     -0.00001  -0.00006   0.00000  -0.00025  -0.00525  -0.00045
  35  O 1   dyy     -0.00005  -0.00003  -0.00010   0.00027  -0.00727   0.00964
  36  O 1   dxz      0.00002   0.00010   0.00000   0.00018   0.00805  -0.00349
  37  O 1   dyz      0.00000  -0.00012  -0.00004  -0.00017  -0.00173  -0.00134
  38  O 1   dzz     -0.00004  -0.00011  -0.00007   0.00036  -0.00291   0.00690
  39  O 2   s        0.00000  -0.00002  -0.00003  -0.00861  -0.12798  -0.15402
  40  O 2   s        0.00002  -0.00015  -0.00017   0.01829   0.27595   0.32903
  41  O 2   px      -0.00002   0.00005   0.00002  -0.00022  -0.03093  -0.01050
  42  O 2   py       0.00000  -0.00007  -0.00001   0.00632   0.08652   0.08301
  43  O 2   pz       0.00005   0.00001  -0.00001  -0.00394  -0.05712  -0.04737
  44  O 2   s       -0.00011   0.00030   0.00131   0.02590   0.27302   0.37286
  45  O 2   px      -0.00009  -0.00072  -0.00011  -0.00206  -0.01637   0.00294
  46  O 2   py       0.00016   0.00006   0.00048   0.00635   0.03320   0.03697
  47  O 2   pz      -0.00024  -0.00014  -0.00020  -0.00297  -0.02548  -0.01994
  48  O 2   s        0.00187   0.00209  -0.00109   0.01419  -0.03910  -0.00628
  49  O 2   px       0.00023  -0.00006  -0.00056  -0.00116  -0.00903  -0.00623
  50  O 2   py       0.00004   0.00038  -0.00051   0.00444  -0.00842   0.01130
  51  O 2   pz      -0.00046  -0.00022   0.00008  -0.00329   0.00266  -0.00629
  52  O 2   dxx     -0.00003   0.00000  -0.00012  -0.00071  -0.00573  -0.00996
  53  O 2   dxy     -0.00003  -0.00006  -0.00001  -0.00025  -0.00598  -0.00023
  54  O 2   dyy      0.00000  -0.00007  -0.00001   0.00082   0.00349  -0.00043
  55  O 2   dxz     -0.00002   0.00014   0.00001   0.00007   0.00286  -0.00120
  56  O 2   dyz     -0.00005  -0.00005  -0.00004  -0.00050  -0.00816  -0.00467
  57  O 2   dzz      0.00003  -0.00014  -0.00006   0.00021  -0.00133  -0.00618
  58  C 2   s       -0.00076   0.99356  -0.00241  -0.01930  -0.02732  -0.00425
  59  C 2   s       -0.00023   0.05087  -0.00043   0.03386   0.05189   0.00826
  60  C 2   px      -0.00007   0.00025  -0.00006   0.01740  -0.01940   0.00703
  61  C 2   py       0.00002   0.00013   0.00002  -0.00275  -0.01196  -0.00691
  62  C 2   pz       0.00002  -0.00013  -0.00005   0.00634   0.00756   0.00932
  63  C 2   s        0.00034  -0.03156   0.00433   0.01834   0.00781   0.00665
  64  C 2   px       0.00062  -0.00134   0.00024   0.01173   0.00216   0.01961
  65  C 2   py       0.00021   0.00208   0.00069   0.01290  -0.00719  -0.01418
  66  C 2   pz      -0.00001   0.00132  -0.00177   0.02223  -0.01956   0.02140
  67  C 2   s        0.02362  -0.02248   0.04974   0.02321  -0.32446  -0.16187
  68  C 2   px      -0.00064  -0.00183   0.00135  -0.01724   0.00464  -0.02461
  69  C 2   py      -0.00267   0.00288  -0.00539   0.01760   0.04650   0.06488
  70  C 2   pz      -0.00277   0.00446  -0.00502  -0.00940  -0.00022  -0.01094
  71  C 2   dxx      0.00003  -0.00833  -0.00013   0.00465   0.00139  -0.00292
  72  C 2   dxy      0.00000  -0.00004   0.00002  -0.00261   0.00459  -0.00033
  73  C 2   dyy     -0.00012  -0.00811  -0.00016   0.00014   0.00308   0.00284
  74  C 2   dxz      0.00009  -0.00005   0.00001   0.00074  -0.00034  -0.00133
  75  C 2   dyz     -0.00004   0.00022   0.00003   0.00111   0.00082  -0.00070
  76  C 2   dzz     -0.00009  -0.00802  -0.00023  -0.00048  -0.00105  -0.00005
  77  C 3   s        0.00001   0.00216   0.99302  -0.00380  -0.00690   0.00341
  78  C 3   s        0.00012  -0.00031   0.05039   0.00885   0.01342  -0.00425
  79  C 3   px      -0.00007   0.00005   0.00012   0.00206  -0.00286   0.00291
  80  C 3   py       0.00006  -0.00009  -0.00001  -0.00297  -0.00483   0.00027
  81  C 3   pz       0.00000   0.00017  -0.00018   0.00415   0.00626  -0.00026
  82  C 3   s       -0.00094   0.00710  -0.01941   0.00400   0.00085   0.00331
  83  C 3   px      -0.00002   0.00009  -0.00044  -0.00741   0.00373   0.00425
  84  C 3   py       0.00007  -0.00185   0.00109   0.00034   0.00376   0.00762
  85  C 3   pz      -0.00019   0.00267  -0.00136   0.00074   0.00036   0.00851
  86  C 3   s       -0.00705   0.00782  -0.01936  -0.04038   0.01233  -0.01335
  87  C 3   px      -0.00012   0.00006  -0.00077  -0.00406   0.00095  -0.00286
  88  C 3   py       0.00104  -0.00127   0.00317   0.00159   0.00051  -0.00685
  89  C 3   pz      -0.00156   0.00078  -0.00402  -0.01131   0.00429  -0.00785
  90  C 3   dxx     -0.00002  -0.00017  -0.00892   0.00010   0.00041  -0.00015
  91  C 3   dxy      0.00002  -0.00001   0.00002   0.00035   0.00035  -0.00055
  92  C 3   dyy      0.00000  -0.00013  -0.00903   0.00022   0.00015   0.00006
  93  C 3   dxz     -0.00004   0.00000  -0.00004  -0.00028  -0.00012   0.00030
  94  C 3   dyz      0.00001   0.00006   0.00016  -0.00067  -0.00054   0.00005
  95  C 3   dzz      0.00002  -0.00029  -0.00913   0.00070   0.00127   0.00103
  96  O 3   s       -0.00004  -0.00014  -0.00003  -0.01234  -0.01889  -0.00472
  97  O 3   s       -0.00016  -0.00033  -0.00016   0.02914   0.03856   0.01104
  98  O 3   px      -0.00003  -0.00001   0.00001   0.00386  -0.00091   0.00157
  99  O 3   py       0.00003   0.00010   0.00001  -0.00880  -0.01209  -0.00383
 100  O 3   pz       0.00001   0.00011   0.00005  -0.00841  -0.01163  -0.00142
 101  O 3   s        0.00056   0.00328   0.00029   0.00807   0.05001   0.00599
 102  O 3   px       0.00010   0.00013  -0.00008   0.00045  -0.00011  -0.00259
 103  O 3   py      -0.00023  -0.00080  -0.00002   0.00202  -0.00990   0.00302
 104  O 3   pz      -0.00008  -0.00081  -0.00006   0.00184  -0.00927  -0.00244
 105  O 3   s       -0.00164   0.00539  -0.00359  -0.01116   0.01646   0.00479
 106  O 3   px       0.00000   0.00039   0.00016   0.00054   0.00223   0.00168
 107  O 3   py       0.00025  -0.00176   0.00090  -0.00125   0.00308  -0.00617
 108  O 3   pz       0.00023  -0.00184   0.00019   0.00163   0.00054   0.00155
 109  O 3   dxx     -0.00009  -0.00010  -0.00021   0.00099  -0.00197  -0.00029
 110  O 3   dxy     -0.00004   0.00002  -0.00002  -0.00058  -0.00014   0.00017
 111  O 3   dyy     -0.00008  -0.00026  -0.00009   0.00087   0.00007   0.00015
 112  O 3   dxz      0.00001   0.00001   0.00002  -0.00011   0.00009   0.00007
 113  O 3   dyz      0.00007  -0.00028  -0.00002   0.00083   0.00200   0.00005
 114  O 3   dzz     -0.00010  -0.00035   0.00004   0.00088  -0.00005   0.00060
 115  C 4   s       -0.00186  -0.00154  -0.00002  -0.11575   0.00308  -0.00325
 116  C 4   s       -0.00028  -0.00039  -0.00022   0.22379  -0.00519   0.00303
 117  C 4   px      -0.00013  -0.00001   0.00007   0.14658  -0.02541  -0.01107
 118  C 4   py       0.00007  -0.00002  -0.00005   0.03467  -0.00287  -0.00334
 119  C 4   pz       0.00004  -0.00009   0.00011   0.09366  -0.00893  -0.00217
 120  C 4   s        0.00241   0.00669  -0.00019   0.06825   0.00634  -0.00439
 121  C 4   px      -0.00059  -0.00544   0.00038  -0.04096   0.01482  -0.01071
 122  C 4   py      -0.00311   0.00341  -0.00046  -0.02467   0.00814  -0.01499
 123  C 4   pz      -0.00335   0.00100  -0.00104  -0.04613   0.01545  -0.01549
 124  C 4   s       -0.00450   0.01083  -0.00439   0.12519   0.14948   0.13555
 125  C 4   px       0.00064  -0.00178   0.00269   0.00902  -0.04558  -0.02890
 126  C 4   py       0.00013  -0.00007  -0.00336  -0.00669   0.00831   0.00296
 127  C 4   pz       0.00000  -0.00057  -0.00329  -0.00476  -0.00061  -0.00857
 128  C 4   dxx     -0.00019  -0.00026  -0.00014   0.00865   0.00104  -0.00028
 129  C 4   dxy     -0.00003   0.00009  -0.00005   0.00728  -0.00108   0.00039
 130  C 4   dyy     -0.00018  -0.00016  -0.00006  -0.01679   0.00167   0.00011
 131  C 4   dxz     -0.00009   0.00008  -0.00001   0.02067  -0.00201  -0.00156
 132  C 4   dyz     -0.00012   0.00006  -0.00005   0.00573  -0.00021  -0.00045
 133  C 4   dzz     -0.00022  -0.00009  -0.00003  -0.00704   0.00055  -0.00093
 134  O 4   s       -0.00008  -0.00003  -0.00001  -0.19490   0.01801   0.00536
 135  O 4   s       -0.00042  -0.00017  -0.00006   0.41820  -0.03712  -0.01329
 136  O 4   px       0.00007   0.00003  -0.00003  -0.12196   0.00920   0.00157
 137  O 4   py       0.00001   0.00004   0.00002  -0.03766   0.00343   0.00033
 138  O 4   pz       0.00003   0.00005  -0.00004  -0.08996   0.00787   0.00232
 139  O 4   s        0.00220   0.00071   0.00060   0.43761  -0.05246  -0.00048
 140  O 4   px      -0.00116   0.00038  -0.00012  -0.04634   0.00686  -0.00454
 141  O 4   py       0.00007  -0.00072  -0.00008  -0.01531   0.00235   0.00067
 142  O 4   pz      -0.00041  -0.00054   0.00012  -0.03576   0.00593  -0.00195
 143  O 4   s        0.00148   0.00050  -0.00242  -0.03097  -0.01052   0.00964
 144  O 4   px       0.00011  -0.00005   0.00088  -0.00143   0.00573  -0.00055
 145  O 4   py      -0.00056  -0.00007   0.00019  -0.00011   0.00171  -0.00074
 146  O 4   pz      -0.00035  -0.00039   0.00079   0.00025   0.00213  -0.00113
 147  O 4   dxx     -0.00006  -0.00022   0.00002   0.00058   0.00050   0.00034
 148  O 4   dxy     -0.00002   0.00005   0.00002   0.00571  -0.00062   0.00002
 149  O 4   dyy     -0.00026  -0.00006  -0.00002  -0.01010   0.00139  -0.00022
 150  O 4   dxz      0.00013   0.00007  -0.00002   0.01027  -0.00115   0.00019
 151  O 4   dyz      0.00013   0.00015   0.00001   0.00087  -0.00012  -0.00008
 152  O 4   dzz     -0.00022  -0.00003  -0.00004  -0.00425   0.00070  -0.00026
 153  C 5   s        0.99298   0.00066   0.00003  -0.01974  -0.00170  -0.00382
 154  C 5   s        0.05052  -0.00023   0.00014   0.03914   0.00250   0.00613
 155  C 5   px       0.00012   0.00003  -0.00001   0.00497  -0.00371  -0.00185
 156  C 5   py      -0.00007  -0.00010  -0.00004   0.01812   0.00005   0.00001
 157  C 5   pz      -0.00010  -0.00001   0.00000   0.01991   0.00040   0.00111
 158  C 5   s       -0.02019   0.00170  -0.00110  -0.01000   0.01090  -0.00399
 159  C 5   px       0.00037   0.00077   0.00033   0.01927  -0.00474  -0.00321
 160  C 5   py      -0.00119   0.00097  -0.00072  -0.00866   0.00220  -0.00564
 161  C 5   pz      -0.00115   0.00080  -0.00041  -0.00046   0.00107   0.00106
 162  C 5   s       -0.00160  -0.00185  -0.00694  -0.05156  -0.03380  -0.04372
 163  C 5   px      -0.00022  -0.00016   0.00001  -0.00584   0.01518   0.00737
 164  C 5   py      -0.00038  -0.00046  -0.00127  -0.00870  -0.00250  -0.00763
 165  C 5   pz      -0.00028  -0.00039  -0.00102  -0.01031  -0.00429  -0.00587
 166  C 5   dxx     -0.00904  -0.00008  -0.00001  -0.00113   0.00051   0.00011
 167  C 5   dxy      0.00007   0.00005   0.00004   0.00125  -0.00040   0.00014
 168  C 5   dyy     -0.00914  -0.00009  -0.00004   0.00301  -0.00011  -0.00049
 169  C 5   dxz      0.00005   0.00010   0.00002   0.00082  -0.00065  -0.00020
 170  C 5   dyz     -0.00014   0.00006  -0.00001   0.00404  -0.00022  -0.00010
 171  C 5   dzz     -0.00910  -0.00004   0.00003   0.00385  -0.00019  -0.00026
 172  H 1   s       -0.00008  -0.00010   0.00012   0.00691   0.00262   0.00269
 173  H 1   s        0.00365   0.00119  -0.00093   0.00919  -0.00295   0.00403
 174  H 2   s       -0.00010  -0.00002   0.00001   0.00904   0.00043   0.00213
 175  H 2   s        0.00368   0.00011  -0.00032  -0.00248   0.00039  -0.00179
 176  H 3   s       -0.00013  -0.00006   0.00003   0.00903   0.00001   0.00144
 177  H 3   s        0.00361  -0.00020  -0.00028  -0.00184   0.00022   0.00483
 178  H 4   s        0.00006  -0.00022  -0.00010   0.00214   0.00185  -0.00132
 179  H 4   s       -0.00017   0.00010   0.00323   0.00377  -0.00074  -0.00451
 180  H 5   s        0.00004  -0.00025  -0.00012   0.00089   0.00464  -0.00381
 181  H 5   s        0.00007  -0.00019   0.00316  -0.00294   0.00698   0.00054
 182  H 6   s       -0.00009  -0.00026  -0.00011   0.00224   0.00328  -0.00089
 183  H 6   s        0.00032   0.00012   0.00313   0.00105   0.00295   0.00687
                        13        14        15        16        17        18
 eigenvalues:         -0.602    -0.466    -0.412    -0.320    -0.230    -0.183
   1  C 1   s        0.00802  -0.00271  -0.00975   0.03852   0.08282  -0.05634
   2  C 1   s       -0.01761   0.00429   0.02170  -0.08026  -0.17904   0.12561
   3  C 1   px       0.03222   0.02437   0.04205  -0.08867  -0.11314   0.03706
   4  C 1   py       0.04657   0.02247   0.02681  -0.07735  -0.12351   0.07221
   5  C 1   pz      -0.00139  -0.01602  -0.01070   0.01673   0.01236   0.01319
   6  C 1   s       -0.01102   0.01551   0.01115  -0.07751  -0.18837   0.12322
   7  C 1   px       0.00326   0.00374  -0.01026  -0.02673  -0.02489   0.01015
   8  C 1   py      -0.00449  -0.01362   0.00046   0.00324  -0.03164   0.02633
   9  C 1   pz       0.01736   0.00280  -0.00622  -0.00505   0.01074  -0.00107
  10  C 1   s       -0.08403   0.05623  -0.02349  -0.09425   0.12434   0.01966
  11  C 1   px      -0.01857   0.01251   0.00483  -0.01485   0.01462   0.00937
  12  C 1   py      -0.01779   0.01696  -0.00784  -0.02259   0.00863   0.00408
  13  C 1   pz      -0.00003  -0.00611   0.01316   0.00951  -0.01046  -0.00439
  14  C 1   dxx      0.00185   0.00211  -0.00040  -0.00404   0.00549  -0.00585
  15  C 1   dxy      0.00667   0.00152   0.00306  -0.00613  -0.00561   0.00039
  16  C 1   dyy      0.00392  -0.00102   0.00094   0.00362   0.00180  -0.00194
  17  C 1   dxz     -0.00173  -0.00162  -0.00279   0.00159   0.00189   0.00049
  18  C 1   dyz      0.00420   0.00080  -0.00157  -0.00169   0.00042  -0.00098
  19  C 1   dzz      0.00014  -0.00062  -0.00043   0.00484   0.00700  -0.00459
  20  O 1   s        0.02084   0.00566   0.01625  -0.01588  -0.04830   0.03431
  21  O 1   s       -0.04632  -0.01288  -0.03644   0.03654   0.10823  -0.07647
  22  O 1   px      -0.01027   0.00161   0.00414  -0.02134  -0.09111   0.08160
  23  O 1   py       0.00956   0.00486   0.01155  -0.01430  -0.03903   0.02998
  24  O 1   pz      -0.00755  -0.00563  -0.00942   0.00095  -0.01805   0.03590
  25  O 1   s       -0.04260  -0.01157  -0.04427   0.03971   0.16034  -0.12135
  26  O 1   px      -0.00031   0.00048   0.00102  -0.01211  -0.03870   0.03664
  27  O 1   py       0.00345   0.00449   0.00683  -0.00739  -0.02185   0.01781
  28  O 1   pz      -0.00252  -0.00306  -0.00638  -0.00118  -0.00741   0.01669
  29  O 1   s        0.02062  -0.00894  -0.02157  -0.00413   0.02951  -0.00690
  30  O 1   px       0.00713  -0.00225  -0.01040  -0.00482   0.00245   0.01042
  31  O 1   py       0.00218  -0.00064  -0.00277  -0.00230   0.00255   0.00147
  32  O 1   pz      -0.00018   0.00238   0.00154  -0.00052   0.00216   0.00355
  33  O 1   dxx     -0.00001   0.00053   0.00131  -0.00301  -0.00834   0.00586
  34  O 1   dxy      0.00137   0.00082   0.00125  -0.00143  -0.00300   0.00209
  35  O 1   dyy      0.00047   0.00000   0.00043   0.00116   0.00086  -0.00066
  36  O 1   dxz     -0.00079  -0.00065  -0.00082  -0.00048  -0.00284   0.00354
  37  O 1   dyz      0.00089   0.00043   0.00031  -0.00118  -0.00150   0.00057
  38  O 1   dzz     -0.00024  -0.00033  -0.00023   0.00074  -0.00006   0.00090
  39  O 2   s        0.02928   0.01505   0.00497  -0.03261  -0.04051   0.02540
  40  O 2   s       -0.06255  -0.03279  -0.01173   0.07276   0.09108  -0.05760
  41  O 2   px       0.00976   0.01258   0.00660  -0.03018  -0.02387   0.00541
  42  O 2   py      -0.01252  -0.00487   0.00396  -0.02792  -0.07694   0.07107
  43  O 2   pz       0.01198  -0.00040  -0.00058   0.00695   0.02734  -0.01442
  44  O 2   s       -0.07552  -0.04219  -0.00951   0.10217   0.13076  -0.08312
  45  O 2   px       0.00393   0.00762   0.00389  -0.01545  -0.01219   0.00416
  46  O 2   py      -0.00712  -0.00582   0.00382  -0.00913  -0.03545   0.03626
  47  O 2   pz       0.00440   0.00257  -0.00046  -0.00036   0.01073  -0.00531
  48  O 2   s        0.01507  -0.03049   0.00087   0.02748   0.01592   0.00043
  49  O 2   px       0.00773  -0.00622   0.00442  -0.00038   0.00077   0.00306
  50  O 2   py       0.00175  -0.00598  -0.00044   0.00724   0.00076   0.00732
  51  O 2   pz      -0.00218   0.00774  -0.00269  -0.00449  -0.00140  -0.00333
  52  O 2   dxx      0.00120   0.00102  -0.00074  -0.00024   0.00185  -0.00093
  53  O 2   dxy      0.00140   0.00116   0.00094  -0.00247  -0.00141  -0.00006
  54  O 2   dyy      0.00042   0.00017   0.00056  -0.00360  -0.00707   0.00541
  55  O 2   dxz     -0.00055  -0.00081  -0.00063   0.00128   0.00133  -0.00040
  56  O 2   dyz      0.00126   0.00035  -0.00047   0.00146   0.00343  -0.00238
  57  O 2   dzz      0.00069   0.00079  -0.00007  -0.00048  -0.00061  -0.00085
  58  C 2   s       -0.11343  -0.03049  -0.05620   0.09234   0.05180   0.02095
  59  C 2   s        0.22372   0.05673   0.10558  -0.19027  -0.10833  -0.04704
  60  C 2   px      -0.00367   0.02755   0.01153  -0.07048   0.18085  -0.18557
  61  C 2   py       0.09841  -0.04673  -0.02415   0.16076   0.07696  -0.02919
  62  C 2   pz       0.09464  -0.06475  -0.13553   0.01950   0.01545   0.02798
  63  C 2   s        0.10070   0.06087   0.12732  -0.18567  -0.12493  -0.03887
  64  C 2   px      -0.00312  -0.00041   0.00334  -0.01185   0.03708  -0.05757
  65  C 2   py      -0.02760  -0.01192  -0.00585   0.04439   0.02926  -0.02054
  66  C 2   pz      -0.03603  -0.02067  -0.02168   0.01935   0.01129   0.00244
  67  C 2   s        0.18374  -0.10668  -0.00300   0.21108  -0.28622  -0.21283
  68  C 2   px       0.01336   0.01063  -0.01650  -0.01706   0.03648  -0.01253
  69  C 2   py      -0.00678  -0.01051  -0.03100  -0.01018   0.04855   0.00169
  70  C 2   pz       0.02499  -0.00060  -0.03251  -0.03120   0.05840   0.07769
  71  C 2   dxx     -0.01392   0.00172  -0.00020  -0.00715   0.00401  -0.00139
  72  C 2   dxy     -0.00228  -0.00267   0.00057   0.00221  -0.01105   0.00404
  73  C 2   dyy      0.00046  -0.00203  -0.00457   0.00481   0.00007   0.00565
  74  C 2   dxz     -0.00242  -0.00141   0.00104   0.00125  -0.00239   0.00065
  75  C 2   dyz      0.01708  -0.00511  -0.01390   0.00144   0.00253  -0.00057
  76  C 2   dzz      0.00455  -0.00266   0.00120   0.01519   0.00395   0.00066
  77  C 3   s       -0.03235  -0.04670  -0.16396  -0.08780  -0.01175  -0.01219
  78  C 3   s        0.05879   0.08918   0.31484   0.17165   0.02083   0.02550
  79  C 3   px       0.00173   0.00893   0.00298  -0.01964   0.06889  -0.10873
  80  C 3   py      -0.00652  -0.01666  -0.00561   0.07110   0.04770   0.03438
  81  C 3   pz       0.03211   0.00358  -0.00306  -0.07479  -0.04101  -0.03135
  82  C 3   s        0.03936   0.07278   0.30396   0.19633   0.03864   0.03553
  83  C 3   px       0.00522   0.00404   0.00912  -0.00399   0.03806  -0.05229
  84  C 3   py       0.01108  -0.00323   0.00062   0.02679   0.01489   0.02129
  85  C 3   pz       0.01179  -0.00821  -0.02167  -0.02775  -0.01301  -0.01296
  86  C 3   s        0.01683   0.02201   0.11319  -0.00996   0.11335   0.17377
  87  C 3   px       0.00255  -0.00171   0.00991   0.00178   0.00450  -0.00085
  88  C 3   py      -0.00845   0.00619  -0.01833   0.00203  -0.01660  -0.02187
  89  C 3   pz       0.00067   0.01110   0.02745  -0.00826   0.01798   0.03110
  90  C 3   dxx     -0.00067  -0.00004   0.00093   0.00393   0.00154   0.00355
  91  C 3   dxy     -0.00011  -0.00099   0.00010   0.00168   0.00102  -0.00151
  92  C 3   dyy     -0.00130   0.00079  -0.00011  -0.00133  -0.00006  -0.00110
  93  C 3   dxz      0.00075   0.00038  -0.00009  -0.00229   0.00286  -0.00338
  94  C 3   dyz     -0.00213  -0.00028   0.00123   0.00808   0.00375   0.00126
  95  C 3   dzz      0.00589  -0.00066  -0.00223  -0.00447  -0.00263  -0.00214
  96  O 3   s       -0.18456   0.04047   0.06944  -0.05452  -0.02912  -0.01143
  97  O 3   s        0.39422  -0.08823  -0.15126   0.12124   0.06652   0.02551
  98  O 3   px       0.01100   0.00031  -0.00001  -0.01387   0.04599  -0.06989
  99  O 3   py      -0.08548   0.00987   0.01616   0.03570   0.03679   0.00112
 100  O 3   pz      -0.09990   0.00763  -0.00371   0.00113   0.01722   0.01672
 101  O 3   s        0.43466  -0.09926  -0.18812   0.15217   0.08635   0.04155
 102  O 3   px       0.00606   0.00001  -0.00056  -0.00651   0.02206  -0.03824
 103  O 3   py      -0.04244   0.00274   0.00985   0.01812   0.01845   0.00003
 104  O 3   pz      -0.04951   0.00319   0.00332   0.00034   0.00697   0.00469
 105  O 3   s       -0.04238   0.01364  -0.00549  -0.01830   0.01932   0.02558
 106  O 3   px      -0.00277  -0.00071   0.00161   0.00062  -0.00104   0.00317
 107  O 3   py       0.00635   0.00015  -0.00035  -0.00107  -0.00299  -0.00348
 108  O 3   pz       0.00766  -0.00095   0.01033   0.00768  -0.00129  -0.00397
 109  O 3   dxx     -0.01149   0.00157   0.00340  -0.00171   0.00051  -0.00165
 110  O 3   dxy     -0.00132   0.00006   0.00001   0.00135  -0.00319   0.00478
 111  O 3   dyy     -0.00192   0.00136   0.00171  -0.00533  -0.00295   0.00068
 112  O 3   dxz     -0.00180  -0.00018  -0.00001   0.00121  -0.00364   0.00470
 113  O 3   dyz      0.01196  -0.00045  -0.00055  -0.00316  -0.00285  -0.00069
 114  O 3   dzz      0.00071   0.00156   0.00433  -0.00096  -0.00075  -0.00102
 115  C 4   s       -0.00857  -0.06843  -0.00822   0.09439  -0.10379  -0.02533
 116  C 4   s        0.01619   0.13801   0.01781  -0.20079   0.22962   0.06198
 117  C 4   px      -0.05587  -0.06263  -0.04830   0.15585   0.03601   0.17900
 118  C 4   py       0.01738  -0.08155   0.06455  -0.04405  -0.00970  -0.21605
 119  C 4   pz      -0.01039  -0.11963   0.01652   0.00755  -0.05256  -0.02347
 120  C 4   s        0.02455   0.10701  -0.00042  -0.18741   0.24917   0.03157
 121  C 4   px       0.01179  -0.00407  -0.01168   0.04286   0.01074   0.04721
 122  C 4   py       0.01846  -0.00961  -0.00063  -0.00138   0.01201  -0.05550
 123  C 4   pz       0.02234  -0.01435  -0.01120   0.01721  -0.01700   0.00523
 124  C 4   s       -0.11451  -0.08872  -0.06535  -0.14186   0.12565   0.02962
 125  C 4   px       0.03481  -0.03600   0.01096   0.02583  -0.02905   0.02489
 126  C 4   py      -0.01599   0.02846   0.01485   0.01141  -0.03457  -0.03612
 127  C 4   pz      -0.00562   0.01576   0.02758   0.02923  -0.04101  -0.03833
 128  C 4   dxx      0.00261  -0.00799   0.00281   0.00030  -0.01011   0.00195
 129  C 4   dxy     -0.00606  -0.00660  -0.00092   0.00500  -0.00273  -0.00400
 130  C 4   dyy      0.00324   0.00419  -0.00306   0.00611  -0.00445  -0.00443
 131  C 4   dxz     -0.00388  -0.00672   0.00296   0.00201  -0.00120  -0.00109
 132  C 4   dyz      0.00096   0.00786  -0.00576   0.00043   0.00239  -0.00078
 133  C 4   dzz     -0.00068  -0.00022  -0.00325   0.00871  -0.00664  -0.00537
 134  O 4   s        0.02716   0.05341  -0.00372  -0.04219   0.07155   0.03568
 135  O 4   s       -0.05705  -0.11951   0.00756   0.09651  -0.15853  -0.07845
 136  O 4   px       0.00551   0.00728  -0.00970   0.07234  -0.15476  -0.04386
 137  O 4   py       0.00946  -0.01512   0.01811  -0.01144  -0.03997  -0.19703
 138  O 4   pz       0.01099  -0.01473   0.00562   0.01201  -0.13624  -0.12652
 139  O 4   s       -0.08260  -0.14054   0.01906   0.12116  -0.26650  -0.14308
 140  O 4   px       0.00713  -0.00098  -0.00891   0.03928  -0.06527  -0.01014
 141  O 4   py       0.00508  -0.00633   0.00752  -0.00509  -0.01594  -0.10650
 142  O 4   pz       0.00807  -0.00695  -0.00033   0.00622  -0.05670  -0.06009
 143  O 4   s        0.00167  -0.00881   0.01829   0.00960  -0.03147   0.00099
 144  O 4   px      -0.00242   0.00974  -0.00332  -0.00245  -0.00784  -0.01940
 145  O 4   py      -0.00032   0.00410  -0.00361  -0.00162   0.00209  -0.00526
 146  O 4   pz       0.00037   0.00760  -0.00392  -0.00276  -0.00112  -0.00749
 147  O 4   dxx      0.00204   0.00115   0.00151  -0.00740   0.00739  -0.00275
 148  O 4   dxy     -0.00161   0.00104  -0.00096  -0.00022   0.00229   0.00984
 149  O 4   dyy      0.00184   0.00209  -0.00136   0.00120   0.00062   0.00533
 150  O 4   dxz     -0.00127   0.00157   0.00071  -0.00348   0.00882   0.00384
 151  O 4   dyz     -0.00027   0.00216  -0.00175   0.00059   0.00398   0.01057
 152  O 4   dzz      0.00083   0.00329  -0.00082   0.00042   0.00660   0.00529
 153  C 5   s       -0.00193  -0.16977   0.07795  -0.04876   0.02138   0.00913
 154  C 5   s        0.00465   0.32453  -0.15108   0.09391  -0.04116  -0.01759
 155  C 5   px      -0.00479  -0.00518  -0.01934   0.05359   0.01010   0.12737
 156  C 5   py       0.00293   0.01844   0.02149  -0.07374   0.13873   0.04883
 157  C 5   pz      -0.00005   0.00970   0.00589  -0.06299   0.11108   0.23452
 158  C 5   s        0.01285   0.31877  -0.16443   0.12426  -0.05340  -0.00967
 159  C 5   px      -0.00187   0.00074  -0.00988   0.02268   0.00010   0.06364
 160  C 5   py       0.00379   0.00060   0.00954  -0.02160   0.05685   0.03050
 161  C 5   pz       0.00150  -0.01097   0.00321  -0.02186   0.04663   0.11896
 162  C 5   s        0.00081   0.15537  -0.00890   0.09289  -0.10351  -0.07686
 163  C 5   px      -0.00556   0.00264   0.00463  -0.00335   0.00922   0.00925
 164  C 5   py      -0.00211   0.03131  -0.00333   0.01181  -0.00501  -0.01060
 165  C 5   pz      -0.00144   0.02877  -0.00015   0.01035  -0.00364   0.01404
 166  C 5   dxx      0.00024   0.00047  -0.00058   0.00235  -0.00687  -0.01105
 167  C 5   dxy     -0.00063  -0.00043  -0.00136   0.00318  -0.00089  -0.00370
 168  C 5   dyy      0.00051  -0.00021   0.00130  -0.00282   0.00464   0.00605
 169  C 5   dxz     -0.00054  -0.00011  -0.00050   0.00190  -0.00307  -0.00287
 170  C 5   dyz     -0.00007  -0.00072   0.00269  -0.00789   0.00876   0.00258
 171  C 5   dzz     -0.00001  -0.00093  -0.00002  -0.00119   0.00213   0.00307
 172  H 1   s        0.00245   0.11130  -0.04857   0.03901  -0.07399  -0.14743
 173  H 1   s        0.00242   0.00146  -0.00315   0.00893  -0.03983  -0.07591
 174  H 2   s       -0.00023   0.10757  -0.06415   0.06277  -0.05426   0.05456
 175  H 2   s        0.00242   0.01007  -0.00790   0.02201  -0.02751   0.03837
 176  H 3   s        0.00013   0.11184  -0.06083   0.06933  -0.03629  -0.04159
 177  H 3   s        0.00182   0.00773  -0.00989   0.02524  -0.01648  -0.02631
 178  H 4   s        0.01602   0.02731   0.11063   0.08611   0.05436  -0.01654
 179  H 4   s       -0.00416   0.00294   0.00791   0.02078   0.02563  -0.01236
 180  H 5   s        0.01569   0.02388   0.10769   0.08818  -0.01142   0.07510
 181  H 5   s        0.00062   0.00216   0.01004   0.01982   0.00089   0.03602
 182  H 6   s        0.01215   0.03647   0.11348   0.07706   0.01561  -0.00028
 183  H 6   s        0.00603   0.00244   0.00506   0.01940   0.00523   0.00147
                        19        20        21        22        23        24
 eigenvalues:         -0.165    -0.151    -0.140    -0.126    -0.112    -0.094
   1  C 1   s       -0.03376   0.02601   0.06322  -0.05359  -0.01144  -0.00103
   2  C 1   s        0.07956  -0.05745  -0.14507   0.12780   0.02728  -0.00030
   3  C 1   px      -0.02546  -0.01140   0.04045  -0.10708  -0.09533   0.13814
   4  C 1   py       0.00311   0.03638   0.05109  -0.12653  -0.01931  -0.00732
   5  C 1   pz       0.02194   0.02530  -0.02815   0.01860  -0.07290   0.16230
   6  C 1   s        0.06055  -0.06236  -0.15297   0.11415   0.03122  -0.00301
   7  C 1   px      -0.01429  -0.01869  -0.00650  -0.00632  -0.04111   0.05965
   8  C 1   py       0.01492   0.02330   0.00419  -0.03464   0.01198  -0.00572
   9  C 1   pz      -0.00111  -0.00501  -0.00380   0.01104  -0.04015   0.06619
  10  C 1   s        0.01026   0.10538   0.03305  -0.12198  -0.02722   0.06279
  11  C 1   px       0.00297   0.02389   0.00941  -0.03874  -0.00866  -0.01402
  12  C 1   py      -0.01037   0.01022   0.00230  -0.01561  -0.00080   0.04568
  13  C 1   pz       0.01115   0.00470  -0.00193  -0.01195   0.00431  -0.00614
  14  C 1   dxx     -0.00454   0.00274   0.00419  -0.00110  -0.00395  -0.00071
  15  C 1   dxy      0.00205   0.00247   0.00039   0.00063  -0.00053  -0.00263
  16  C 1   dyy     -0.00065   0.00333   0.00664  -0.00640   0.00203   0.00079
  17  C 1   dxz     -0.00058  -0.00043  -0.00275   0.00179  -0.00073  -0.00095
  18  C 1   dyz     -0.00265  -0.00179  -0.00001  -0.00020  -0.00044  -0.00085
  19  C 1   dzz     -0.00246   0.00164   0.00589  -0.00809  -0.00243  -0.00051
  20  O 1   s        0.02425  -0.01427  -0.03733   0.03526   0.03207  -0.03834
  21  O 1   s       -0.05209   0.03242   0.08093  -0.07434  -0.06600   0.07763
  22  O 1   px       0.05981  -0.04726  -0.11039   0.11427   0.12813  -0.20581
  23  O 1   py      -0.01074   0.02770   0.05490  -0.12256  -0.03504   0.06706
  24  O 1   pz       0.04851  -0.00207  -0.08169   0.11880   0.04720  -0.03632
  25  O 1   s       -0.09425   0.04480   0.14056  -0.13631  -0.14708   0.18014
  26  O 1   px       0.02385  -0.02619  -0.04834   0.04779   0.05024  -0.08643
  27  O 1   py      -0.00568   0.01456   0.02799  -0.06678  -0.01676   0.03471
  28  O 1   pz       0.02302   0.00028  -0.03980   0.06140   0.01750  -0.00435
  29  O 1   s       -0.00767  -0.01129   0.00099  -0.00357  -0.01188   0.03889
  30  O 1   px       0.00661  -0.00928  -0.01882   0.02520   0.02259  -0.01900
  31  O 1   py       0.00208   0.00138   0.00505  -0.00668  -0.00449   0.00617
  32  O 1   pz       0.00153  -0.00217  -0.00917   0.01160   0.00585  -0.00901
  33  O 1   dxx      0.00357  -0.00347  -0.00539   0.00443   0.00685  -0.01082
  34  O 1   dxy     -0.00060   0.00220   0.00352  -0.00742  -0.00225   0.00355
  35  O 1   dyy      0.00030   0.00032  -0.00012   0.00108   0.00221  -0.00195
  36  O 1   dxz      0.00347  -0.00031  -0.00522   0.00660   0.00261  -0.00103
  37  O 1   dyz     -0.00077   0.00046   0.00191  -0.00365  -0.00138   0.00158
  38  O 1   dzz      0.00201   0.00069  -0.00265   0.00338   0.00077   0.00056
  39  O 2   s        0.01197  -0.02330  -0.04687   0.04854  -0.00524   0.02636
  40  O 2   s       -0.02462   0.04911   0.10139  -0.10282   0.01025  -0.05659
  41  O 2   px      -0.05557   0.00158   0.06244  -0.10684  -0.04906   0.04262
  42  O 2   py       0.05644  -0.04812  -0.13918   0.13597  -0.05806   0.17596
  43  O 2   pz      -0.01173   0.06052   0.08098  -0.11493  -0.03415  -0.00021
  44  O 2   s       -0.04458   0.09847   0.18053  -0.19662   0.03521  -0.11614
  45  O 2   px      -0.03277  -0.00103   0.03223  -0.05610  -0.02847   0.02635
  46  O 2   py       0.02957  -0.01459  -0.06257   0.05498  -0.02638   0.08603
  47  O 2   pz      -0.00394   0.02738   0.03461  -0.05182  -0.02468   0.00867
  48  O 2   s        0.01822   0.02370  -0.00427  -0.01956   0.01111  -0.00894
  49  O 2   px       0.00773   0.00224  -0.00408  -0.00774  -0.00229   0.00334
  50  O 2   py       0.01048   0.00031  -0.02103   0.01863  -0.00582   0.01912
  51  O 2   pz      -0.00997   0.00061   0.01016  -0.01038   0.00299  -0.00377
  52  O 2   dxx     -0.00048  -0.00062  -0.00087   0.00294   0.00019  -0.00103
  53  O 2   dxy     -0.00300  -0.00004   0.00374  -0.00620  -0.00283   0.00206
  54  O 2   dyy      0.00386  -0.00210  -0.00759   0.00567  -0.00481   0.01028
  55  O 2   dxz      0.00194  -0.00036  -0.00275   0.00451   0.00174  -0.00216
  56  O 2   dyz     -0.00180   0.00330   0.00516  -0.00615  -0.00050  -0.00172
  57  O 2   dzz     -0.00029  -0.00375  -0.00230   0.00425   0.00288  -0.00367
  58  C 2   s       -0.00759  -0.05761  -0.03221   0.00742  -0.00188   0.00851
  59  C 2   s        0.01901   0.12779   0.07052  -0.01393   0.00500  -0.02194
  60  C 2   px      -0.03784   0.03349  -0.02151   0.09632  -0.07013  -0.01675
  61  C 2   py       0.02549   0.08460   0.05889   0.02942   0.15661  -0.07130
  62  C 2   pz      -0.03177  -0.03061  -0.10042  -0.01500  -0.10790   0.13588
  63  C 2   s        0.00834   0.15572   0.06845  -0.03669   0.00036   0.00747
  64  C 2   px      -0.01352   0.01731  -0.01354   0.03249  -0.00333  -0.01496
  65  C 2   py       0.00153   0.04751  -0.00006   0.01939   0.03711  -0.01285
  66  C 2   pz      -0.00237   0.02420  -0.03661  -0.01002  -0.03519   0.04387
  67  C 2   s       -0.09348  -0.24742   0.26791   0.06585   0.03146  -0.18985
  68  C 2   px      -0.01023  -0.02265   0.02021  -0.01100   0.02143   0.03735
  69  C 2   py       0.01245   0.01449   0.01012  -0.04872  -0.01346  -0.03311
  70  C 2   pz       0.01275  -0.02703  -0.06811   0.03607   0.00175   0.02486
  71  C 2   dxx      0.00096  -0.00081  -0.00752  -0.00044  -0.00215   0.00057
  72  C 2   dxy      0.00460   0.00051  -0.00337   0.00264  -0.00039  -0.00146
  73  C 2   dyy     -0.00160  -0.00297   0.00010   0.00367   0.00354   0.00738
  74  C 2   dxz     -0.00391   0.00241  -0.00307  -0.00589   0.00084  -0.00106
  75  C 2   dyz      0.00055  -0.00647  -0.00013  -0.00130  -0.00298  -0.00440
  76  C 2   dzz      0.00055  -0.00361   0.00010  -0.00167  -0.00189  -0.00673
  77  C 3   s        0.00820  -0.00116   0.00560  -0.00293   0.00101   0.00130
  78  C 3   s       -0.01845   0.00416  -0.01168   0.00563   0.00113  -0.00121
  79  C 3   px       0.03027   0.00059  -0.02429   0.23396  -0.08861  -0.02819
  80  C 3   py      -0.03086   0.08371  -0.03329   0.11355   0.11146   0.30389
  81  C 3   pz       0.03547   0.18322   0.14131   0.04795   0.24254   0.02043
  82  C 3   s       -0.00749   0.01616  -0.00802   0.00894   0.00953  -0.01659
  83  C 3   px       0.02013  -0.00279  -0.01081   0.11700  -0.04703  -0.01913
  84  C 3   py      -0.01670   0.02344  -0.01586   0.04770   0.04866   0.13922
  85  C 3   pz       0.02401   0.07273   0.06366   0.01746   0.11632  -0.01204
  86  C 3   s        0.02377   0.05743  -0.21823   0.07012  -0.01756   0.08360
  87  C 3   px      -0.00190   0.00757  -0.01969   0.04247  -0.02640  -0.00245
  88  C 3   py      -0.00809  -0.00428   0.02967   0.01055   0.02806   0.05399
  89  C 3   pz       0.01145   0.03318  -0.03165   0.02016   0.03700   0.03013
  90  C 3   dxx     -0.00154   0.00328  -0.00087  -0.00136   0.00653   0.01343
  91  C 3   dxy      0.00014   0.00263  -0.00201   0.01243  -0.00096   0.00496
  92  C 3   dyy     -0.00035  -0.00181  -0.00182   0.00448  -0.00208   0.00337
  93  C 3   dxz     -0.00026   0.00293   0.00148   0.00105   0.00218   0.00067
  94  C 3   dyz     -0.00157  -0.01056  -0.00651  -0.00288  -0.01116  -0.00595
  95  C 3   dzz      0.00158  -0.00165   0.00144  -0.00345  -0.00576  -0.01487
  96  O 3   s        0.00360   0.05238   0.00781  -0.00286   0.01089   0.01456
  97  O 3   s       -0.00769  -0.11037  -0.01791   0.00497  -0.02358  -0.03151
  98  O 3   px      -0.01526   0.02738  -0.01834   0.03949  -0.02978  -0.01110
  99  O 3   py       0.00222  -0.04740   0.01896   0.02705   0.05497  -0.05624
 100  O 3   pz      -0.01590  -0.10646  -0.05181  -0.00570  -0.09071   0.00430
 101  O 3   s       -0.01141  -0.20997  -0.02054   0.01784  -0.03702  -0.06072
 102  O 3   px      -0.00846   0.01210  -0.01101   0.02212  -0.02011  -0.00582
 103  O 3   py       0.00276  -0.00823   0.01065   0.01253   0.03359  -0.02573
 104  O 3   pz      -0.00895  -0.03723  -0.02901  -0.00396  -0.04961   0.00775
 105  O 3   s        0.00716  -0.02402  -0.02825  -0.00921   0.00638   0.01046
 106  O 3   px      -0.00079   0.00143   0.00158  -0.00064  -0.00093  -0.00365
 107  O 3   py      -0.00050  -0.00473   0.00487   0.00656  -0.00367  -0.00564
 108  O 3   pz      -0.00021  -0.00095   0.00269   0.00269  -0.00614   0.00312
 109  O 3   dxx     -0.00012   0.00289  -0.00147  -0.00014  -0.00034   0.00037
 110  O 3   dxy      0.00143  -0.00136   0.00140  -0.00167   0.00230   0.00033
 111  O 3   dyy     -0.00081   0.00258  -0.00291  -0.00202  -0.00561   0.00545
 112  O 3   dxz      0.00060  -0.00153   0.00074  -0.00297   0.00181   0.00077
 113  O 3   dyz      0.00033   0.00319   0.00101  -0.00131  -0.00031   0.00042
 114  O 3   dzz      0.00184   0.00899   0.00524   0.00063   0.00922  -0.00224
 115  C 4   s        0.00645   0.01012   0.01826   0.00571  -0.00462  -0.00909
 116  C 4   s       -0.01532  -0.02388  -0.04832  -0.01679   0.01660   0.01883
 117  C 4   px       0.09422   0.02374  -0.09151  -0.09085   0.14214  -0.06494
 118  C 4   py       0.08125   0.13532  -0.14367  -0.03592   0.00584  -0.07940
 119  C 4   pz      -0.13273   0.13764  -0.22631  -0.10170  -0.03826   0.02582
 120  C 4   s       -0.01378   0.00539  -0.06250  -0.00415  -0.00983   0.04235
 121  C 4   px       0.03824   0.00433  -0.02114  -0.02545   0.06645  -0.02329
 122  C 4   py       0.04252   0.02139  -0.02053   0.01080   0.00083  -0.03149
 123  C 4   pz      -0.04559   0.01326  -0.04982  -0.02344  -0.02668   0.02663
 124  C 4   s        0.04038  -0.00893   0.17547  -0.01287  -0.08245  -0.01444
 125  C 4   px       0.00820  -0.03985  -0.00107   0.01346   0.05728   0.00375
 126  C 4   py       0.00453   0.05916  -0.04962  -0.00125  -0.00368  -0.02034
 127  C 4   pz      -0.01601   0.04687  -0.05704  -0.01582  -0.01549   0.02064
 128  C 4   dxx      0.00638   0.00337   0.00074  -0.00333   0.00145  -0.00317
 129  C 4   dxy      0.00152  -0.00437  -0.00953  -0.00627   0.00825  -0.00035
 130  C 4   dyy     -0.00656   0.00236   0.00894   0.01011  -0.00133  -0.00410
 131  C 4   dxz     -0.00809   0.00052  -0.01065  -0.00619   0.00909  -0.00324
 132  C 4   dyz      0.00011  -0.00288  -0.00283  -0.00126   0.00215   0.00277
 133  C 4   dzz      0.00113  -0.00498  -0.00071  -0.00218  -0.00292   0.00632
 134  O 4   s        0.00321   0.02162  -0.04645  -0.02174   0.01232  -0.00502
 135  O 4   s       -0.00599  -0.04479   0.09615   0.04425  -0.02203   0.01177
 136  O 4   px       0.06434  -0.13550   0.34996   0.17542  -0.06363   0.00550
 137  O 4   py       0.06223   0.03054  -0.01610   0.03380  -0.00920  -0.05218
 138  O 4   pz      -0.13040  -0.03046   0.08974   0.07352  -0.15500   0.10576
 139  O 4   s       -0.02000  -0.09378   0.21057   0.09892  -0.07011   0.01670
 140  O 4   px       0.04088  -0.06172   0.16715   0.08257  -0.02138   0.00061
 141  O 4   py       0.03582   0.02155  -0.02187   0.01182   0.00140  -0.03193
 142  O 4   pz      -0.07185  -0.00514   0.02500   0.02823  -0.07678   0.06032
 143  O 4   s        0.00118  -0.00001   0.00358   0.02393  -0.01186   0.00506
 144  O 4   px      -0.00347  -0.02295   0.05242   0.02016  -0.01972   0.00074
 145  O 4   py       0.00304   0.00137   0.00085   0.00185  -0.00387   0.00067
 146  O 4   pz      -0.00518  -0.00868   0.01937   0.00999  -0.01676   0.00646
 147  O 4   dxx     -0.00596   0.00820  -0.01627  -0.00629  -0.00184   0.00239
 148  O 4   dxy     -0.00505  -0.00216  -0.00052  -0.00219   0.00020   0.00372
 149  O 4   dyy     -0.00257  -0.00059   0.00293   0.00148  -0.00077   0.00231
 150  O 4   dxz      0.00349   0.00227  -0.00716  -0.00392   0.00569  -0.00380
 151  O 4   dyz     -0.00026  -0.00230   0.00205  -0.00078   0.00134   0.00086
 152  O 4   dzz      0.01055  -0.00098   0.00214  -0.00020   0.00686  -0.00465
 153  C 5   s        0.00433  -0.00221  -0.00081  -0.00337  -0.00824  -0.00889
 154  C 5   s       -0.01007   0.00664   0.00103   0.00796   0.01894   0.01972
 155  C 5   px       0.20221   0.25466   0.02555   0.02363  -0.23447  -0.05673
 156  C 5   py       0.25539  -0.18949   0.11681  -0.04058   0.02652   0.11564
 157  C 5   pz      -0.19662  -0.00122   0.14311   0.14456  -0.04329  -0.08082
 158  C 5   s       -0.01169  -0.03102   0.02808   0.02492   0.02478   0.03533
 159  C 5   px       0.08277   0.11778   0.01514   0.01880  -0.11191  -0.03222
 160  C 5   py       0.11809  -0.11136   0.06130  -0.01229   0.00459   0.04814
 161  C 5   pz      -0.07944  -0.00823   0.08526   0.07172  -0.02334  -0.03761
 162  C 5   s       -0.01519   0.07965  -0.17691  -0.02181   0.03668   0.04319
 163  C 5   px       0.01842   0.05104   0.01417   0.00084  -0.06375  -0.02318
 164  C 5   py       0.02573  -0.01541  -0.01816  -0.01860   0.01097   0.03358
 165  C 5   pz      -0.02544   0.01594  -0.00789   0.01978  -0.00003  -0.01554
 166  C 5   dxx      0.00427  -0.00219  -0.00547  -0.00530   0.00398   0.00395
 167  C 5   dxy      0.00952  -0.00411  -0.00268  -0.00607   0.00603   0.00490
 168  C 5   dyy     -0.00578   0.00573   0.00328   0.00707  -0.00318  -0.00790
 169  C 5   dxz     -0.01679  -0.00745  -0.00315   0.00082   0.01280  -0.00314
 170  C 5   dyz      0.00201  -0.01390   0.00375  -0.00165   0.00858   0.00572
 171  C 5   dzz      0.00081  -0.00057  -0.00114  -0.00230  -0.00096   0.00395
 172  H 1   s       -0.08109  -0.11756  -0.07767  -0.05651   0.15215   0.04310
 173  H 1   s       -0.05327  -0.08565  -0.06051  -0.04008   0.11600   0.01879
 174  H 2   s       -0.16107   0.15587  -0.01234   0.07797  -0.07163  -0.10172
 175  H 2   s       -0.11564   0.11217  -0.01306   0.06263  -0.06844  -0.09763
 176  H 3   s        0.21978   0.09058  -0.02900  -0.05729  -0.09040   0.04343
 177  H 3   s        0.18065   0.07837  -0.02118  -0.05228  -0.08585   0.04104
 178  H 4   s       -0.00859   0.03671  -0.03452   0.15964   0.00984   0.13704
 179  H 4   s       -0.00326   0.03163  -0.02613   0.11548   0.01604   0.12144
 180  H 5   s       -0.03227   0.01667  -0.00102  -0.10699   0.07103   0.09826
 181  H 5   s       -0.01486   0.01080   0.00134  -0.06861   0.04895   0.07797
 182  H 6   s       -0.00840  -0.13173  -0.06880  -0.05363  -0.17423  -0.13849
 183  H 6   s       -0.00094  -0.11130  -0.05813  -0.04782  -0.13318  -0.12557
                        25        26        27        28        29        30
 eigenvalues:         -0.078    -0.070    -0.060    -0.054    -0.025     0.039
   1  C 1   s        0.00319  -0.00004   0.00435  -0.01557  -0.00577  -0.00510
   2  C 1   s       -0.00992   0.00319  -0.00284   0.02792   0.01347   0.01349
   3  C 1   px      -0.03083  -0.20926  -0.17042   0.08094   0.00185   0.02659
   4  C 1   py       0.26898   0.07697   0.08531   0.10230   0.05390  -0.00994
   5  C 1   pz       0.00264  -0.12313   0.23641  -0.13544   0.11976   0.00419
   6  C 1   s       -0.01446  -0.01304  -0.03084   0.05708   0.02315   0.01238
   7  C 1   px      -0.01011  -0.05396  -0.07052   0.06277  -0.02202   0.01566
   8  C 1   py       0.07616   0.01518   0.02814   0.02881   0.04494   0.01118
   9  C 1   pz       0.01668  -0.02496   0.10317  -0.03966   0.04008  -0.00643
  10  C 1   s       -0.10089   0.11082  -0.08082  -0.00802  -0.08597   0.16831
  11  C 1   px      -0.02520   0.03032  -0.03366   0.03419  -0.02429   0.05007
  12  C 1   py      -0.00642   0.00654   0.00413   0.00098   0.01193   0.03800
  13  C 1   pz       0.01115   0.01880   0.04572  -0.01868   0.02445   0.00118
  14  C 1   dxx      0.00770   0.01032   0.00605   0.00171   0.00065  -0.00904
  15  C 1   dxy     -0.00136   0.00057   0.00122  -0.00593  -0.00439  -0.00948
  16  C 1   dyy     -0.00630  -0.01065  -0.00569  -0.00538  -0.00323   0.00862
  17  C 1   dxz      0.00051   0.00513  -0.00599   0.00635  -0.00793   0.00139
  18  C 1   dyz      0.00324   0.00484  -0.00516   0.00383  -0.01065  -0.00373
  19  C 1   dzz      0.00165  -0.00210  -0.00017  -0.00002   0.00153  -0.00022
  20  O 1   s        0.00666   0.04257   0.00895   0.00621  -0.00345  -0.00090
  21  O 1   s       -0.01262  -0.08968  -0.01936  -0.01559   0.00762   0.00090
  22  O 1   px       0.06923   0.25826  -0.05183   0.12152  -0.07616   0.01595
  23  O 1   py       0.13351  -0.04578   0.06588   0.06937   0.10975   0.09807
  24  O 1   pz       0.08937   0.13398   0.25529  -0.08808   0.09556  -0.04561
  25  O 1   s       -0.03523  -0.17924  -0.03428  -0.01345   0.00847   0.00660
  26  O 1   px       0.03319   0.11921  -0.03454   0.07119  -0.04604   0.01320
  27  O 1   py       0.07586  -0.02112   0.04327   0.03983   0.06515   0.06261
  28  O 1   pz       0.05044   0.06224   0.14673  -0.05163   0.05991  -0.02582
  29  O 1   s        0.03311  -0.03513   0.00749   0.00095  -0.02574   0.00094
  30  O 1   px       0.02398   0.03959  -0.00060   0.01289  -0.02400  -0.00042
  31  O 1   py       0.01852  -0.00950   0.00131   0.00234   0.00999   0.02064
  32  O 1   pz       0.00579   0.02394   0.02916  -0.00129   0.00324  -0.01214
  33  O 1   dxx      0.00303   0.00915  -0.00888   0.00805  -0.00481   0.00172
  34  O 1   dxy      0.00876  -0.00172   0.00588   0.00237   0.00585   0.00299
  35  O 1   dyy     -0.00388  -0.00066  -0.00166  -0.00256  -0.00136  -0.00077
  36  O 1   dxz      0.00520   0.00599   0.01181  -0.00300   0.00421  -0.00065
  37  O 1   dyz      0.00420  -0.00143  -0.00110   0.00309   0.00082   0.00206
  38  O 1   dzz      0.00287   0.00085   0.01226  -0.00638   0.00568  -0.00141
  39  O 2   s       -0.04120  -0.02742  -0.00048  -0.01455   0.00238  -0.00012
  40  O 2   s        0.08470   0.05594   0.00144   0.02899  -0.00609   0.00233
  41  O 2   px       0.09162  -0.02464  -0.14193   0.15014  -0.02889   0.04045
  42  O 2   py      -0.15320  -0.19685   0.08165  -0.09945   0.10891   0.04244
  43  O 2   pz       0.22356   0.09166   0.20094   0.00220   0.10543  -0.07103
  44  O 2   s        0.18010   0.12226   0.00240   0.06101   0.00237   0.00179
  45  O 2   px       0.04784  -0.01784  -0.08214   0.08390  -0.01791   0.02636
  46  O 2   py      -0.05891  -0.09202   0.04987  -0.04847   0.06607   0.02105
  47  O 2   pz       0.11085   0.04170   0.11913  -0.00674   0.06411  -0.04304
  48  O 2   s        0.04562  -0.00436   0.00548  -0.00608  -0.01194  -0.00798
  49  O 2   px       0.01259  -0.00034  -0.01087   0.01723  -0.01462  -0.00872
  50  O 2   py      -0.02742  -0.03377   0.00575  -0.02205   0.00623   0.01756
  51  O 2   pz       0.03210   0.01138   0.01998   0.00610   0.01398  -0.01676
  52  O 2   dxx     -0.00107   0.00253   0.00405  -0.00295  -0.00015  -0.00167
  53  O 2   dxy      0.00264  -0.00198  -0.00909   0.00674  -0.00271   0.00101
  54  O 2   dyy     -0.00141  -0.00866   0.00883  -0.00393   0.00665  -0.00012
  55  O 2   dxz     -0.00425   0.00201   0.00156  -0.00353  -0.00133  -0.00101
  56  O 2   dyz      0.00930   0.00465   0.00835  -0.00075   0.00282  -0.00218
  57  O 2   dzz     -0.00879  -0.00125  -0.01267   0.00246  -0.00747   0.00201
  58  C 2   s       -0.00748   0.01205  -0.00464   0.03889   0.03545   0.02653
  59  C 2   s        0.01445  -0.02867   0.00867  -0.08625  -0.08216  -0.04933
  60  C 2   px      -0.11853   0.09500   0.03963   0.01211  -0.00242  -0.15711
  61  C 2   py      -0.02058  -0.04376   0.02102  -0.18092  -0.09733   0.15997
  62  C 2   pz       0.05568   0.04753   0.08840   0.02672  -0.30538   0.01799
  63  C 2   s        0.04267  -0.02181   0.03642  -0.12983  -0.14273  -0.15997
  64  C 2   px      -0.05849   0.03159  -0.00121  -0.00997  -0.00023  -0.10491
  65  C 2   py      -0.01769  -0.00769   0.01282  -0.04800  -0.03733   0.09976
  66  C 2   pz       0.02082   0.00504   0.03900   0.00963  -0.09609   0.00604
  67  C 2   s       -0.11066  -0.03463  -0.12245  -0.00966   0.56742  -0.99915
  68  C 2   px      -0.08045   0.04542   0.01784  -0.03890   0.03937  -0.18127
  69  C 2   py      -0.01713   0.05564  -0.02414  -0.08652   0.01360   0.19288
  70  C 2   pz       0.03624  -0.06474   0.04841   0.03896  -0.10334  -0.06082
  71  C 2   dxx     -0.00008   0.00592   0.00572   0.01233   0.00938  -0.00320
  72  C 2   dxy      0.00816  -0.00767  -0.00443   0.00381   0.00051   0.00006
  73  C 2   dyy     -0.00124  -0.00100  -0.00742   0.00193  -0.00020   0.00693
  74  C 2   dxz     -0.00726   0.00612  -0.00411   0.00159  -0.00117  -0.00339
  75  C 2   dyz     -0.00014   0.00029   0.00115  -0.00108  -0.01861   0.00569
  76  C 2   dzz     -0.00047  -0.00255   0.00094  -0.00720  -0.00199   0.00144
  77  C 3   s        0.00517  -0.00035   0.00011   0.01096  -0.01395   0.00223
  78  C 3   s       -0.01372   0.00126   0.00114  -0.02588   0.02841  -0.00456
  79  C 3   px       0.28194  -0.11902  -0.13464  -0.03914   0.02849   0.04930
  80  C 3   py       0.04332   0.09866  -0.02029   0.17389  -0.07663  -0.04033
  81  C 3   pz      -0.03642  -0.02678  -0.07099  -0.06713   0.15282   0.00027
  82  C 3   s       -0.01659  -0.00682  -0.00564  -0.03697   0.06754  -0.01005
  83  C 3   px       0.13625  -0.05636  -0.05201  -0.03229   0.01820   0.02535
  84  C 3   py       0.00539   0.05486  -0.00136   0.08009  -0.04935  -0.02014
  85  C 3   pz      -0.01527  -0.02793  -0.03988  -0.04613   0.09606   0.01178
  86  C 3   s        0.09592  -0.09897   0.09206   0.05007  -0.25732  -0.09899
  87  C 3   px       0.07846  -0.03435  -0.04901  -0.01443  -0.00081   0.02191
  88  C 3   py      -0.00386   0.03100  -0.01801   0.04040   0.01780  -0.01183
  89  C 3   pz       0.01135  -0.02182   0.00661   0.00384  -0.01990  -0.02484
[...]
    64   -8.507033487879e-04
    65   -2.066596155739e-02
    66    2.324550590988e-02
    67   -5.185497763915e+00
    68   -1.066534647999e-01
    69   -2.327458167655e+00
    70    1.765431241979e+00
    71   -9.704832444476e-04
    72    6.289968254731e-03
    73   -4.588995084753e-03
    74   -1.260921372869e-03
    75    2.045142049425e-03
    76   -3.633584308665e-04
    77   -3.177101282071e-02
    78    8.047740407722e-02
    79    3.044482894947e-03
    80    4.924799165137e-02
    81   -8.408996534112e-02
    82    1.060411439710e-01
    83    3.008317747158e-02
    84    1.023619180131e-01
    85   -1.408096368143e-01
    86    1.005289435902e+01
    87    4.372359540632e-01
    88   -2.479227603644e+00
    89    3.748226286068e+00
    90    5.618316807646e-03
    91    3.333209877264e-03
    92   -4.698598924725e-03
    93    3.250325354669e-03
    94   -1.719167359456e-03
    95    1.029718075268e-02
    96   -2.866597296247e-03
    97    1.296025606152e-02
    98    4.161242864173e-03
    99    5.853133930071e-02
   100   -6.111259897062e-02
   101   -3.986511404845e-03
   102    2.831835515347e-03
   103    2.622797847791e-02
   104   -5.197139685197e-02
   105    2.432804587383e-01
   106    5.239649654829e-02
   107    7.782473758174e-02
   108    1.538790262975e-01
   109    2.112746728130e-03
   110    1.550075569186e-03
   111    2.589127000271e-03
   112    4.712928926317e-05
   113   -3.487661807811e-04
   114    2.243036405852e-04
   115   -9.051691992757e-03
   116    1.772423540178e-02
   117   -2.703857140851e-02
   118   -2.945671165086e-02
   119    1.849523865261e-02
   120    6.375006033242e-02
   121   -4.970017055978e-02
   122   -8.809126284454e-02
   123   -2.459863017121e-03
   124   -1.738178098556e+00
   125    1.081145912310e+00
   126   -5.223305525121e-01
   127   -1.621944688827e-01
   128   -1.886457876285e-03
   129   -2.169800929317e-03
   130   -1.421318149619e-03
   131    4.040807900164e-03
   132   -3.670802562428e-03
   133    2.490251270681e-03
   134    1.998375346644e-03
   135    6.552179695310e-03
   136    8.841369271837e-03
   137    3.972711467149e-02
   138   -2.293803138158e-02
   139   -5.373885433267e-02
   140   -9.513753621966e-04
   141    1.819593758532e-02
   142   -3.880633543388e-02
   143    6.633984366522e-01
   144   -2.141866689988e-01
   145    8.326973350458e-02
   146   -6.417186761149e-02
   147    6.037830490423e-03
   148    2.596806151623e-03
   149    4.299712478656e-03
   150   -4.477112482384e-04
   151    1.493489074041e-03
   152   -4.977976045412e-05
   153    5.827034338653e-03
   154   -2.059232221856e-02
   155   -1.835218426027e-02
   156    3.813724370376e-02
   157   -2.336228568107e-02
   158    8.012790797629e-03
   159   -2.477470311436e-02
   160    2.935861318001e-02
   161    1.069059672268e-02
   162   -2.251986917652e+00
   163    5.338167431228e-01
   164   -1.168468598886e+00
   165   -3.201477688825e-01
   166    9.898986182066e-04
   167   -3.523773110030e-03
   168   -1.034264511096e-03
   169   -2.392177934242e-04
   170   -2.587305720775e-03
   171    4.590628324147e-03
   172   -1.759309206921e-03
   173    1.423639234822e-01
   174   -2.187445563785e-02
   175   -7.816111473983e-04
   176    2.179803990551e-03
   177    1.630327694187e-01
   178    2.581066281228e-02
   179   -1.444206752128e-01
   180    1.427376231693e-02
   181   -1.668112213419e-01
   182    2.398949182844e-02
   183   -1.482047007349e-01
Sym=X
Ene= 0.260045
Spin=Alpha
Occup=0
     1    1.363550838518e-02
     2   -1.820721230627e-02
     3   -1.429951460289e-02
     4   -3.720050718627e-02
     5   -1.143777608463e-02
     6   -2.208252433448e-01
     7    2.113956885695e-02
     8   -9.072056701023e-03
     9    2.881231010615e-02
    10    6.866557996200e-01
    11    1.416078356630e+00
    12   -5.106282392122e-02
    13    6.434258481434e-01
    14   -1.371325156445e-03
    15    2.305106531847e-03
    16    6.469476261587e-04
    17    1.278212878904e-03
    18   -3.738509022637e-03
    19   -1.500315949151e-04
    20   -7.980519404206e-03
    21    1.675310355405e-02
    22   -9.167327556507e-03
    23    1.341269653611e-02
    24   -7.912105511539e-03
    25    7.618810038622e-02
    26    4.522098674513e-02
    27    9.916378320928e-03
    28    1.508689215889e-02
    29   -1.553289730547e-01
    30   -3.524410708483e-01
    31   -1.150575313464e-01
    32   -6.165602010408e-02
    33    1.939140708885e-03
    34   -5.394711680766e-04
    35   -1.015939017208e-03
    36   -1.463130032874e-03
    37    1.206506792899e-03
    38   -1.094203203418e-03
    39   -1.959154420143e-04
    40    7.129385812093e-03
    41   -4.692911446313e-02
    42   -1.859733334341e-03
    43   -1.969703896440e-03
    44   -2.957758858154e-02
    45   -5.252661003163e-02
    46    1.671754734186e-02
    47    2.530921365737e-03
    48    4.590025128688e-03
    49    1.453595182604e-01
    50    2.249121195283e-02
    51   -1.628343097332e-01
    52    4.879149396955e-03
    53    1.739663822375e-04
    54    1.895537374367e-03
    55   -1.250217365596e-03
    56    1.420248684485e-03
    57   -2.505814574260e-03
    58   -2.247458497672e-04
    59   -9.663995508944e-03
    60   -1.828188834079e-02
    61    2.993724686382e-03
    62   -6.406235559401e-03
    63    7.565957918866e-02
    64   -1.068367065248e-02
    65   -1.704365823552e-02
    66   -1.291238063637e-02
    67    5.512568345219e+00
    68   -1.512998083481e+00
    69   -1.554951414862e+00
    70   -2.943418483607e+00
    71   -5.033564962489e-03
    72    7.515171955487e-04
    73   -7.646022970903e-04
    74   -5.500091429420e-03
    75    5.431962216640e-03
    76   -3.110322737956e-03
    77   -7.482821417292e-03
    78    1.375412691304e-02
    79   -4.616880922236e-02
    80   -4.094985528856e-02
    81    1.994195544043e-02
    82    2.307661644720e-02
    83    1.315831956374e-02
    84   -4.412480154888e-02
    85    3.345629743632e-02
    86   -1.659649809989e+00
    87    9.633043320943e-01
    88    4.940147911465e-01
    89    4.016119491794e-02
    90   -1.548628337988e-03
    91   -1.707322803427e-03
    92    1.040891775113e-03
    93   -2.403541943696e-04
    94   -3.584994747918e-03
    95    1.584606232385e-03
    96    2.932684051398e-04
    97   -6.029619340105e-03
    98   -2.274000166274e-02
    99   -6.187213821953e-04
   100    4.320153235673e-03
   101    2.941444693706e-02
   102   -1.323446308081e-02
   103   -2.616195035074e-02
   104   -1.770969693525e-02
   105    6.119350611878e-02
   106    1.125767873925e-01
   107    2.334613034236e-01
   108    2.598010638299e-01
   109   -1.216476759965e-03
   110   -4.022176619356e-04
   111   -4.986047723480e-04
   112   -8.897463295833e-05
   113    9.303651476824e-04
   114   -3.586441923150e-04
   115   -1.270846895873e-03
   116   -1.803349147007e-02
   117   -4.495022313291e-02
   118   -8.267301602455e-02
   119    1.561514240662e-01
   120    2.352670109643e-01
   121    8.474631504272e-02
   122   -4.883222942737e-02
   123    2.487528963543e-01
   124   -1.473756585134e+01
   125    2.698255677833e+00
   126    2.899233957128e+00
   127    4.162321518614e+00
   128    5.211043383038e-03
   129    5.530567629301e-04
   130   -5.463554390936e-03
   131    9.309482829201e-03
   132    6.224773736624e-03
   133    2.816435342717e-03
   134    1.568490672307e-02
   135   -4.498419401944e-02
   136   -1.851171043088e-02
   137    6.808775719694e-02
   138   -8.683732280050e-02
   139   -1.228053554925e-01
   140    9.663258292522e-02
   141    7.915015704311e-02
   142   -2.469372625718e-02
   143   -4.388807097868e-01
   144   -4.421382831159e-01
   145    4.119314872461e-02
   146   -1.398735816586e-01
   147   -3.460917799517e-03
   148   -1.777000483415e-03
   149   -6.238013630712e-03
   150   -8.179893888053e-04
   151   -6.876330402798e-03
   152   -2.323577570826e-03
   153    1.957944791734e-03
   154   -1.200438393612e-02
   155   -8.973547895120e-02
   156   -4.696700087593e-02
   157    2.382093204035e-02
   158    7.368443634604e-02
   159   -1.805828370129e-01
   160   -2.404423104790e-02
   161    3.287011545583e-02
   162    1.052856189405e+01
   163    8.712317845670e-02
   164    2.833488624900e+00
   165    1.930586748449e+00
   166    8.230744051525e-03
   167   -1.258854743159e-02
   168    1.878262596181e-03
   169   -9.471248417842e-04
   170    1.416219883586e-03
   171   -3.298433825711e-03
   172    2.754666823190e-02
   173    1.275801912175e-03
   174   -1.843250388870e-02
   175    1.528937397511e-02
   176    2.727698111480e-02
   177    2.245017032617e-02
   178   -4.926706292961e-03
   179   -6.335279640418e-02
   180   -1.938341429596e-03
   181   -1.970439336470e-02
   182    8.010806463392e-03
   183   -4.588456954088e-02
Sym=X
Ene= 0.265817
Spin=Alpha
Occup=0
     1   -1.838908059756e-02
     2    3.274906136563e-02
     3    4.568783789088e-02
     4    4.277715210500e-02
     5    7.003369262509e-03
     6    1.993507443341e-01
     7   -2.278319324461e-02
     8   -5.705203417572e-02
     9    3.859248291828e-02
    10   -4.489958904247e+00
    11   -8.716801239655e-01
    12   -7.347187603243e-01
    13    3.144623696608e-02
    14   -4.183662008752e-03
    15    1.094269989502e-03
    16    2.185826687970e-04
    17    4.728520970769e-04
    18   -4.872537481765e-04
    19    9.947693175002e-04
    20    4.482167246535e-03
    21   -1.490917825985e-02
    22   -2.523648963361e-02
    23   -3.474711015214e-02
    24   -3.905757707646e-03
    25   -5.379008616613e-03
    26   -2.870343928647e-02
    27   -2.177839986017e-02
    28   -8.838765415511e-03
    29   -3.420799203757e-01
    30   -1.400106617814e-01
    31   -6.258302600366e-02
    32   -1.883371258809e-02
    33   -7.260484557500e-04
    34   -5.192917627201e-04
    35   -8.236796000900e-04
    36    4.988453200954e-04
    37   -5.999259476403e-04
    38    1.480400918439e-03
    39    2.481005365712e-03
    40   -1.066816434331e-02
    41    4.160656131782e-02
    42    3.835613111296e-03
    43   -2.354806309930e-03
    44   -7.560562551666e-03
    45    5.174018374725e-02
    46   -2.995236191837e-02
    47   -1.770451616921e-04
    48   -3.049247800608e-01
    49   -6.340721100862e-02
    50   -7.679887139735e-02
    51    1.422457428691e-01
    52   -4.546376353574e-03
    53   -2.549470566622e-04
    54   -1.067015634181e-03
    55    1.458834147872e-03
    56   -1.296623034746e-03
    57    1.409691483739e-03
    58    4.455639556389e-03
    59   -8.215451616744e-03
    60   -1.325467310585e-02
    61    8.414198422402e-04
    62    7.740809925170e-03
    63   -2.160457289188e-02
    64   -4.787701318166e-02
    65   -2.094276081807e-02
    66    6.666875141156e-02
    67    9.845987577100e+00
    68   -6.775774250843e-01
    69   -3.179390525413e+00
    70   -5.497766463958e-01
    71    8.782349223588e-03
    72   -4.608803145224e-03
    73   -3.539682190423e-03
    74    8.854936821682e-03
    75   -8.538863574943e-03
    76    9.907830350963e-03
    77    2.430449339006e-02
    78   -5.505954088088e-02
    79   -3.280205123888e-02
    80   -1.684338418305e-03
    81   -6.499464286117e-02
    82   -1.531722329574e-01
    83    6.918498554038e-02
    84    7.076043080870e-03
    85   -4.402370386005e-02
    86    6.605315146062e-01
    87    3.820669473433e-01
    88    3.437129789063e-01
    89    2.498975101177e-01
    90    3.371681453856e-03
    91    4.898337794459e-04
    92   -7.212275643297e-04
    93   -5.865801993339e-03
    94    3.538223342703e-03
    95   -2.230025403341e-03
    96   -2.697525205131e-04
    97   -7.008158370894e-03
    98    7.441989832343e-03
    99    2.877212261901e-03
   100   -2.546332288458e-02
   101    4.242606978295e-02
   102    1.164187791917e-02
   103    5.428964918544e-04
   104   -1.323898211816e-02
   105   -5.143410432869e-01
   106    1.805595302267e-02
   107    2.417491090749e-01
   108    1.667746402793e-01
   109   -4.242752451438e-04
   110   -3.865650924139e-03
   111   -2.909141063427e-03
   112    1.027595332336e-03
   113   -9.980597672475e-04
   114   -7.126506952608e-04
   115    1.615885081163e-03
   116   -2.040892373800e-02
   117    1.122871386686e-01
   118    2.430419126062e-01
   119   -2.084248316401e-01
   120    1.290235567054e-01
   121    2.095472335014e-01
   122    2.853596285515e-01
   123   -1.008765286583e-01
   124   -8.441660546179e+00
   125    2.477378172354e+00
   126    1.299820415478e+00
   127    9.526549160963e-01
   128   -4.619660430218e-03
   129   -1.015825140209e-02
   130    1.580571023793e-02
   131   -5.062200500194e-03
   132    9.737665960877e-03
   133   -4.153367911137e-03
   134    1.046153450504e-02
   135   -4.058566135650e-02
   136   -1.063744684886e-01
   137   -1.520699623802e-01
   138    1.560125476814e-01
   139   -3.886852969701e-02
   140   -9.231796260271e-03
   141   -1.219495051701e-01
   142    1.636222253394e-01
   143   -8.298220037419e-01
   144   -1.605490520659e-01
   145   -2.422486325618e-02
   146    1.993554002111e-01
   147   -9.332398251435e-03
   148   -3.839220041178e-03
   149   -3.798402494693e-03
   150   -5.435131976477e-03
   151   -1.162794638160e-03
   152   -3.292018191720e-03
   153    5.948286776494e-03
   154   -2.602707615985e-02
   155   -1.707338739119e-02
   156    7.939835419293e-02
   157   -7.598061944637e-02
   158    2.497249172691e-02
   159   -1.725102362795e-02
   160    1.573554530931e-01
   161   -9.838372319821e-02
   162    4.247424108911e+00
   163   -3.997427430915e-01
   164    1.287026017527e-01
   165    1.786294034236e+00
   166    8.968699417224e-04
   167    1.263184716568e-02
   168   -1.803681283587e-02
   169    1.285964685379e-03
   170    8.379617270575e-03
   171   -1.850664426459e-03
   172    1.900220094456e-02
   173    9.143636125157e-03
   174    5.085255363890e-02
   175   -1.059153547792e-02
   176   -5.185486422169e-02
   177   -1.150135242412e-01
   178   -1.159994364549e-02
   179   -1.953557576559e-01
   180    3.506488441620e-02
   181   -2.771383618438e-02
   182   -8.145443242506e-03
   183   -1.027914739320e-01
Sym=X
Ene= 0.279192
Spin=Alpha
Occup=0
     1    9.821314652343e-03
     2    2.713113508503e-02
     3    2.322413289223e-02
     4   -7.114068567469e-03
     5   -3.143177117930e-02
     6   -2.922436036062e-01
     7    2.171992157294e-03
     8    2.321234801963e-02
     9    3.580014860720e-02
    10    6.511040745044e+00
    11    2.584329912561e+00
    12    2.232567566775e+00
    13   -2.135108177647e-01
    14    4.690868936575e-03
    15    3.893635644578e-03
    16    2.059247369655e-03
    17    6.609968991813e-03
    18   -3.244053265108e-03
    19    4.655191421550e-04
    20   -1.321422095829e-02
    21    3.531037790776e-02
    22   -3.248376036695e-02
    23   -3.616093922894e-02
    24    4.010822215475e-03
    25    7.845622557006e-02
    26    2.190262922608e-02
    27   -4.196021602119e-03
    28    1.581529878059e-03
    29   -7.033724106256e-02
    30   -2.457116884844e-01
    31   -2.608266845423e-01
    32    4.861258020685e-02
    33    3.122520315412e-03
    34   -1.297200155150e-05
    35   -1.785583657023e-03
    36   -2.606999421770e-03
    37    1.082489528720e-03
    38   -1.845524787007e-03
    39   -1.487238695654e-02
    40    2.655444449860e-02
    41   -2.509273780655e-02
    42   -2.067808227763e-02
    43    1.867342340942e-02
    44    1.525744655735e-01
    45    1.072247030455e-02
    46    1.510589556432e-02
    47    1.737779346658e-02
    48   -7.508301590361e-01
    49   -5.171106545117e-01
    50   -3.619183064555e-01
    51    2.257597537174e-02
    52   -5.356179491626e-03
    53   -3.441392742802e-03
    54   -2.038291690030e-03
    55   -1.608294971125e-03
    56    1.245105464782e-03
    57   -2.224227536615e-03
    58   -5.827506754840e-03
    59    1.105856275955e-02
    60   -2.315071536182e-02
    61   -2.794591596651e-02
    62   -1.611554172142e-02
    63   -2.099298154943e-02
    64   -3.911226431338e-02
    65    3.484508966543e-02
    66   -3.166290186160e-02
    67   -8.574881209569e+00
    68   -4.399888335641e-01
    69    1.574917101140e+00
    70   -2.250954191273e+00
    71   -1.647860339717e-03
    72   -1.818437484453e-04
    73    4.762527410253e-03
    74    3.108925272074e-03
    75    1.383837203306e-04
    76    5.795647929330e-03
    77   -8.708014366417e-04
    78    1.978316313508e-02
    79    1.421042490793e-02
    80   -4.511072353707e-02
    81   -5.583771318751e-02
    82   -8.374767315182e-02
    83   -2.257327342899e-02
    84    6.975794960924e-02
    85   -9.026449284023e-02
    86   -5.491991109511e+00
    87   -2.840388811026e-01
    88    1.699010357574e+00
    89   -1.223146604478e+00
    90   -1.083056993596e-03
    91    4.473135133145e-03
    92    1.787555974127e-03
    93   -1.338284161437e-03
    94   -8.875501266621e-04
    95   -1.968828565812e-03
    96   -8.094317794521e-03
    97    3.473869251400e-02
    98    2.764376485680e-02
    99   -1.307316642430e-02
   100   -1.540620781983e-03
   101   -1.407658748041e-02
   102    1.375314599013e-02
   103   -1.244235829000e-02
   104   -1.466220596784e-02
   105    1.267345894115e-01
   106    8.801611949256e-02
   107    2.263699057714e-01
   108    2.110138906680e-01
   109    3.961379545439e-03
   110    4.576875599380e-03
   111    2.959954455870e-03
   112   -1.096568094242e-03
   113   -4.790628968484e-04
   114    5.140121545923e-04
   115    9.843166199776e-03
   116    7.291379371568e-03
   117    1.078479456752e-02
   118    5.291039952790e-03
   119   -5.931269909875e-02
   120   -2.910782970475e-01
   121   -8.343813397760e-03
   122    2.582848627167e-03
   123   -9.253517020826e-02
   124    9.203690072082e+00
   125   -5.054298371578e+00
   126    1.382017661386e+00
   127   -7.635845092981e-01
   128    1.201147171331e-03
   129   -1.081710279793e-03
   130    4.681022772263e-03
   131    5.952052790341e-04
   132    4.393797667619e-03
   133    3.016454243537e-03
   134   -1.773130208709e-02
   135    5.636936959140e-02
   136   -5.391347541110e-03
   137   -2.021334685640e-02
   138    2.519194707647e-02
   139    8.928980874145e-02
   140   -7.040861555588e-02
   141   -2.217523942884e-02
   142   -2.016819878167e-02
   143    4.727677036336e-01
   144    4.272135053030e-01
   145   -3.675808067664e-02
   146    1.888297793538e-01
   147    3.971192012157e-03
   148    2.592968618676e-03
   149    4.005944014629e-03
   150    1.323655449784e-04
   151    2.504837483810e-03
   152    1.396234745684e-03
   153   -9.496857305967e-03
   154    3.184725853508e-02
   155   -8.230661912015e-02
   156    1.070991688429e-02
   157   -2.913251707329e-02
   158    5.788601119070e-02
   159    2.171048964444e-02
   160   -5.013605780410e-02
   161   -8.731093980528e-02
   162   -2.007482698370e+00
   163    2.319651512166e+00
   164   -7.749707671503e-01
   165   -1.228508418915e-01
   166    3.904628029440e-03
   167    3.520751977150e-03
   168   -2.719151761253e-03
   169   -3.553528146979e-03
   170    6.749238908295e-04
   171    4.715846857572e-03
   172    7.512545878132e-04
   173   -8.727351111488e-02
   174   -1.814971499173e-03
   175   -1.456648888150e-01
   176   -1.264803337419e-02
   177   -1.898076152169e-01
   178   -4.337046696342e-03
   179   -4.713935923189e-02
   180   -1.072982136056e-02
   181    4.362103235959e-03
   182   -3.977098552922e-03
   183    7.165855985702e-02

======= END OF MOLDEN-FORMATTED INPUT FILE =======


        *************************************************************
        *                                                           *
        *  Thank you very much for using Q-Chem.  Have a nice day.  *
        *                                                           *
        *************************************************************


0 sent ACK to 0 
now end server 0 ... 
cleanup process ... done
