
Running Job 1 of 1 molden_reac.qcin
qchem molden_reac.qcin_46502.0 /tmp/molden_reac.qcin/ 1
/programs/x86_64/lib/qchem-4.3.2/bin/mpi/mpirun_qchem -machinefile /var/spool/torque/aux//123223.vali -np 1 /programs/x86_64/lib/qchem-4.3.2/exe/qcprog.exe molden_reac.qcin_46502.0 /tmp/molden_reac.qcin/

Process 0 of 1 is on bt2600-16.csail.mit.edu - thread support 0
initial socket setup ...start
initial socket setup ...done 
now start server 0 ... 

cmd = ssh thor /programs/x86_64/lib/qchem-4.3.2/bin/get_hostid 2141943828 > /tmp/molden_reac.qcin/lic.dat
                  Welcome to Q-Chem
     A Quantum Leap Into The Future Of Chemistry


 Q-Chem 4.3, Q-Chem, Inc., Pleasanton, CA (2015)

 Y. Shao,  Z. Gan,  E. Epifanovsky,  A. T. B. Gilbert,  M. Wormit,  
 J. Kussmann,  A. W. Lange,  A. Behn,  J. Deng,  X. Feng,  D. Ghosh,  
 M. Goldey,  P. R. Horn,  L. D. Jacobson,  I. Kaliman,  R. Z. Khaliullin,  
 T. Kus,  A. Landau,  J. Liu,  E. I. Proynov,  Y. M. Rhee,  R. M. Richard,  
 M. A. Rohrdanz,  R. P. Steele,  E. J. Sundstrom,  H. L. Woodcock III,  
 P. M. Zimmerman,  D. Zuev,  B. Albrecht,  E. Alguire,  B. Austin,  
 S. A. Baeppler,  G. J. O. Beran,  Y. A. Bernard,  E. Berquist,  
 K. Brandhorst,  K. B. Bravaya,  S. T. Brown,  D. Casanova,  C.-M. Chang,  
 Y. Chen,  S. H. Chien,  K. D. Closser,  D. L. Crittenden,  M. Diedenhofen,  
 R. A. DiStasio Jr.,  H. Do,  A. D. Dutoi,  R. G. Edgar,  P.-T. Fang,  
 S. Fatehi,  Q. Feng,  L. Fusti-Molnar,  A. Ghysels,  
 A. Golubeva-Zadorozhnaya,  J. Gomes,  A. Gunina,  M. W. D. Hanson-Heine,  
 P. H. P. Harbach,  A. W. Hauser,  E. G. Hohenstein,  Z. C. Holden,  K. Hui,  
 T.-C. Jagau,  H. Ji,  B. Kaduk,  K. Khistyaev,  Jaehoon Kim,  Jihan Kim,  
 R. A. King,  P. Klunzinger,  D. Kosenkov,  T. Kowalczyk,  C. M. Krauter,  
 K. U. Lao,  A. Laurent,  K. V. Lawler,  S. Lehtola,  S. V. Levchenko,  
 C. Y. Lin,  Y.-S. Lin,  F. Liu,  E. Livshits,  R. C. Lochan,  A. Luenser,  
 P. Manohar,  S. F. Manzer,  S.-P. Mao,  N. Mardirossian,  A. V. Marenich,  
 L. A. Martinez-Martinez,  S. A. Maurer,  N. J. Mayhall,  K. Nanda,  
 C. M. Oana,  R. Olivares-Amaya,  D. P. O'Neill,  J. A. Parkhill,  
 T. M. Perrine,  R. Peverati,  P. A. Pieniazek,  F. Plasser,  A. Prociuk,  
 D. R. Rehn,  E. Rosta,  N. J. Russ,  N. Sergueev,  S. M. Sharada,  
 S. Sharma,  D. W. Small,  A. Sodt,  T. Stauch,  T. Stein,  D. Stuck,  
 Y.-C. Su,  A. J. W. Thom,  T. Tsuchimochi,  L. Vogt,  O. Vydrov,  T. Wang,  
 M. A. Watson,  J. Wenzel,  A. White,  C. F. Williams,  V. Vanovschi,  
 S. Yeganeh,  S. R. Yost,  Z.-Q. You,  I. Y. Zhang,  X. Zhang,  Y. Zhao,  
 B. R. Brooks,  G. K. L. Chan,  D. M. Chipman,  C. J. Cramer,  
 W. A. Goddard III,  M. S. Gordon,  W. J. Hehre,  A. Klamt,  
 H. F. Schaefer III,  M. W. Schmidt,  C. D. Sherrill,  D. G. Truhlar,  
 A. Warshel,  X. Xu,  A. Aspuru-Guzik,  R. Baer,  A. T. Bell,  N. A. Besley,  
 J.-D. Chai,  A. Dreuw,  B. D. Dunietz,  T. R. Furlani,  S. R. Gwaltney,  
 C.-P. Hsu,  Y. Jung,  J. Kong,  D. S. Lambrecht,  W. Liang,  C. Ochsenfeld,  
 V. A. Rassolov,  L. V. Slipchenko,  J. E. Subotnik,  T. Van Voorhis,  
 J. M. Herbert,  A. I. Krylov,  P. M. W. Gill,  M. Head-Gordon

 Contributors to earlier versions of Q-Chem not listed above: 
 R. D. Adamson,  J. Baker,  E. F. C. Byrd,  A. K. Chakraborty,  C.-L. Cheng,  
 H. Dachsel,  R. J. Doerksen,  G. Hawkins,  A. Heyden,  S. Hirata,  
 G. Kedziora,  F. J. Keil,  C. Kelley,  P. P. Korambath,  W. Kurlancheek,  
 A. M. Lee,  M. S. Lee,  D. Liotard,  I. Lotan,  P. E. Maslen,  N. Nair,  
 D. Neuhauser,  R. Olson,  B. Peters,  J. Ritchie,  N. E. Schultz,  
 N. Shenvi,  A. C. Simmonett,  K. S. Thanthiriwatte,  Q. Wu,  W. Zhang

 Please cite Q-Chem as follows:
 Y. Shao et al., Mol. Phys. 113, 184-215 (2015)
 DOI: 10.1080/00268976.2014.952696

 Q-Chem 4.3.0 for Intel X86 Linux

 Parts of Q-Chem use Armadillo 5.200.1 (Boston Tea Smuggler).
 http://arma.sourceforge.net/

 Q-Chem begins on Tue Jun 27 15:26:53 2017  

Host: 
0

     Scratch files written to /tmp/molden_reac.qcin//
 Oct1215 13750_ 19228  19214 4150   
 Parallel job on  1  processors
Processing $rem in /programs/x86_64/lib/qchem-4.3.2/config/preferences.
 MEM_TOTAL  2000 

Checking the input file for inconsistencies... 	...done.

--------------------------------------------------------------
User input:
--------------------------------------------------------------
$molecule
-2 1
C        3.29600       -0.86600        2.39400
O        4.50600       -1.03900        2.12000
O        2.92600       -0.95400        3.64500
C        2.15900       -0.62100        1.29800
C        1.96600       -1.76700        0.31200
O        0.94700       -0.47600        2.01100
C        2.44300        0.67600        0.56700
O        1.59900        1.61900        0.54700
C        3.71800        0.81000       -0.11300
H        4.08300       -0.17800       -0.30800
H        4.36500        1.05500        0.71800
H        3.63500        1.42000       -1.07500
H        1.31600       -1.57200       -0.59100
H        1.23900       -2.36100        0.98400
H        2.92900       -2.26400        0.05400
$end


$rem
EXCHANGE         B3LYP
BASIS            6-31+G(d)
PRINT_ORBITALS   true
MOLDEN_FORMAT    true
--------------------------------------------------------------
 ----------------------------------------------------------------
             Standard Nuclear Orientation (Angstroms)
    I     Atom           X                Y                Z
 ----------------------------------------------------------------
    1      C       1.2830026172     0.3480087442     0.1757525102
    2      O       1.4934056190     1.5315674351    -0.1764184740
    3      O       2.1928813064    -0.2544305993     0.8960528699
    4      C       0.0033976121    -0.5007857955    -0.2671570292
    5      C      -0.1235337544    -0.7266461583    -1.7690346956
    6      O       0.1441290242    -1.7719361619     0.3350965849
    7      C      -1.2456791660     0.1558269821     0.2859187909
    8      O      -2.0389819342    -0.4731875828     1.0455215787
    9      C      -1.5093668175     1.5352694735    -0.0795784529
   10      H      -0.9793072782     1.7331128758    -0.9891326695
   11      H      -0.8498404139     2.0541798246     0.6022954141
   12      H      -2.6255809964     1.7483281599    -0.1940551011
   13      H      -1.0985184199    -1.1507776935    -2.1504155327
   14      H       0.5493344011    -1.6645924767    -1.7903454717
   15      H       0.2255176351     0.1536051048    -2.3557738550
 ----------------------------------------------------------------
 Molecular Point Group                 C1    NOp =  1
 Largest Abelian Subgroup              C1    NOp =  1
 Nuclear Repulsion Energy =   453.4532808087 hartrees
 There are       35 alpha and       35 beta electrons
 Requested basis set is 6-31+G(d)
 There are 57 shells and 183 basis functions

 Total QAlloc Memory Limit   2000 MB
 Mega-Array Size        61 MB
 MEM_STATIC part        62 MB

                       Distance Matrix (Angstroms)
             C (  1)   O (  2)   O (  3)   C (  4)   C (  5)   O (  6)
   O (  2)  1.252639
   O (  3)  1.307534  2.197555
   C (  4)  1.598127  2.521669  2.491503
   C (  5)  2.629720  3.201632  3.562507  1.524061
   O (  6)  2.411761  3.604904  2.610533  1.413626  2.364666
   C (  7)  2.538366  3.099839  3.516287  1.515660  2.502160  2.377027
   O (  8)  3.530785  4.241455  4.240149  2.428004  3.413929  2.637693
   C (  9)  3.045014  3.004336  4.226290  2.543455  3.145005  3.720701
   H ( 10)  2.897157  2.610639  4.191305  2.545046  2.718641  3.911657
   H ( 11)  2.764413  2.523949  3.830683  2.830514  3.726087  3.962138
   H ( 12)  4.168294  4.124724  5.330756  3.460547  3.855684  4.510383
   H ( 13)  3.650899  4.220155  4.573589  2.276702  1.129572  2.847417
   H ( 14)  2.907641  3.702900  3.450585  1.993137  1.154534  2.166384
   H ( 15)  2.750399  2.873310  3.822485  2.199974  1.113976  3.309852
             C (  7)   O (  8)   C (  9)   H ( 10)   H ( 11)   H ( 12)
   O (  8)  1.265695
   C (  9)  1.451200  2.362254
   H ( 10)  2.045615  3.182843  1.071165
   H ( 11)  1.964822  2.828090  1.081293  1.628646
   H ( 12)  2.161149  2.610705  1.142118  1.828277  1.970019
   H ( 13)  2.768501  3.399649  3.416433  3.111208  4.232140  3.816292
   H ( 14)  3.293459  4.020071  4.171821  3.810917  4.638069  4.927094
   H ( 15)  3.023734  4.133962  3.178032  2.411256  3.676786  3.917261
             H ( 13)   H ( 14)
   H ( 14)  1.763257
   H ( 15)  1.869935  1.931427
 
 A cutoff of  1.0D-08 yielded   1488 shell pairs
 There are     16128 function pairs
 
 -------------------------------------------------------
 OpenMP Integral Computing Module                       
 Release: version 1.0, May 2013, Q-Chem Inc. Pittsburgh 
 -------------------------------------------------------
 Integral Job Info:
 Integral job number is                      11
 Integral operator is                         1
 short-range coefficients                     0
 long-range coefficients              100000000
 Omega coefficients                           0
 if combine SR and LR in K                    0
 Integral screening is                        0
 Integral computing path is                   2
 max size of driver memory is            800000
 size of driver memory is                593474
 size of scratch memory is              2260544
 max col of scratch BK array               1296
 max len of scratch array in speh3          155
 max len of scratch index in speh4           18
 max int batch size is                      520
 min int batch size is                       52
 fixed nKL is                                52
 max L of basis functions is                  2
 order of int derivative is                   0
 number of shells is                         57
 number of basis is                         183
 number of cartesian basis is               183
 number of contracted shell pairs          1488
 number of primitive shell pairs           4952
 maxK2 (contraction) of shell pair           36
 max number of K2 of shell pair               1
 max number of CS2 of shell pair            177
 max number of PS2 of shell pair           1062
 mem total for path MDJ                   43170
 -------------------------------------------------------
 Smallest overlap matrix eigenvalue = 3.09E-05

 Q-Chem warning in module /home/scratch/svnadmin/13750_zgan/qchem/stvman/mkSTV.C, line 251:

 Overlap eigenvalue is smaller than square root of threshold


 Scale SEOQF with 1.000000e-01/1.000000e-01/1.000000e-01

 Standard Electronic Orientation quadrupole field applied
 Nucleus-field energy     =     0.0000000050 hartrees
 Guess from superposition of atomic densities
 Warning:  Energy on first SCF cycle will be non-variational
 A restricted hybrid HF-DFT SCF calculation will be
 performed using Pulay DIIS extrapolation
 Exchange:     0.2000 Hartree-Fock + 0.0800 Slater + 0.7200 B88
 Correlation:  0.1900 VWN1RPA + 0.8100 LYP
 Using SG-1 standard quadrature grid
 SCF converges when DIIS error is below 1.0E-05
 CPU 0.00 s  wall 0.00 s
 Inaccurate integrated density:
   Number of electrons =    70
   Numerical integral  =    68.000112938729
   Relative error      =    -2.8569815161 %
 CPU 4.46 s  wall 5.39 s
 ---------------------------------------
  Cycle       Energy         DIIS Error
 ---------------------------------------
    1    -496.1604867532      4.83E-02
 CPU 0.00 s  wall 0.00 s
 CPU 4.73 s  wall 4.73 s
    2    -494.4637328544      1.11E-02
 CPU 0.00 s  wall 0.00 s
 CPU 4.75 s  wall 4.75 s
    3    -485.6971266148      3.46E-02
 CPU 0.00 s  wall 0.00 s
 CPU 4.73 s  wall 4.73 s
    4    -494.4991623170      1.06E-02
 CPU 0.00 s  wall 0.00 s
 CPU 4.66 s  wall 4.66 s
    5    -494.8921089924      3.02E-03
 CPU 0.00 s  wall 0.00 s
 CPU 4.65 s  wall 4.65 s
    6    -494.9043416724      3.26E-03
 CPU 0.00 s  wall 0.00 s
 CPU 4.59 s  wall 4.59 s
    7    -494.9384893258      9.08E-04
 CPU 0.00 s  wall 0.00 s
 CPU 4.54 s  wall 4.54 s
    8    -494.9402320283      5.42E-04
 CPU 0.00 s  wall 0.00 s
 CPU 4.48 s  wall 4.48 s
    9    -494.9413459795      8.66E-05
 CPU 0.00 s  wall 0.00 s
 CPU 4.28 s  wall 4.28 s
   10    -494.9413668406      4.59E-05
 CPU 0.00 s  wall 0.00 s
 CPU 4.08 s  wall 4.08 s
   11    -494.9413738953      1.87E-05
 CPU 0.00 s  wall 0.00 s
 CPU 3.89 s  wall 3.89 s
   12    -494.9413744294      6.74E-06 Convergence criterion met
 ---------------------------------------
 SCF time:  CPU 177.97 s  wall 170.88 s
 SCF   energy in the final basis set = -494.9413744294
 Total energy in the final basis set = -494.9413744294
 
 --------------------------------------------------------------
 
                    Orbital Energies (a.u.)
 --------------------------------------------------------------
 
 Alpha MOs
 -- Occupied --
-18.848 -18.780 -18.757 -18.707  -9.976  -9.948  -9.920  -9.914
 -9.903  -0.723  -0.695  -0.587  -0.565  -0.493  -0.417  -0.328
 -0.238  -0.194  -0.191  -0.148  -0.145  -0.131  -0.115  -0.098
 -0.070  -0.067  -0.051  -0.040   0.002   0.047   0.069   0.083
  0.109   0.145   0.156
 -- Virtual --
  0.216   0.231   0.254   0.261   0.278   0.285   0.292   0.298
  0.308   0.318   0.324   0.337   0.341   0.352   0.361   0.362
  0.382   0.387   0.391   0.418   0.433   0.450   0.459   0.481
  0.485   0.498   0.515   0.522   0.539   0.540   0.556   0.565
  0.570   0.581   0.583   0.594   0.609   0.611   0.623   0.636
  0.640   0.646   0.661   0.677   0.682   0.686   0.709   0.739
  0.762   0.766   0.824   0.850   0.930   0.938   0.951   0.983
  1.023   1.033   1.050   1.090   1.122   1.129   1.157   1.170
  1.187   1.205   1.223   1.245   1.271   1.297   1.345   1.358
  1.412   1.457   1.481   1.521   1.542   1.564   1.589   1.615
  1.628   1.644   1.670   1.681   1.686   1.717   1.733   1.747
  1.777   1.818   1.828   1.842   1.869   1.930   1.958   1.987
  2.051   2.059   2.077   2.100   2.125   2.144   2.166   2.189
  2.214   2.217   2.240   2.261   2.287   2.293   2.325   2.349
  2.375   2.406   2.434   2.445   2.458   2.500   2.543   2.575
  2.597   2.629   2.680   2.690   2.764   2.783   2.839   2.913
  2.952   2.971   3.029   3.100   3.151   3.280   3.324   3.368
  3.436   3.492   3.582   4.454   4.538   4.582   4.614   4.701
  4.788   4.842   4.960   5.151
 --------------------------------------------------------------
 

                        RESTRICTED (RHF) MOLECULAR ORBITAL COEFFICIENTS
                         1         2         3         4         5         6
 eigenvalues:        -18.848   -18.780   -18.757   -18.707    -9.976    -9.948
   1  C 1   s        0.00001  -0.00002  -0.00003   0.00002  -0.00007   0.99325
   2  C 1   s        0.00005   0.00034   0.00029   0.00015  -0.00013   0.04931
   3  C 1   px       0.00000   0.00007   0.00030   0.00000   0.00011   0.00025
   4  C 1   py       0.00001   0.00033  -0.00016  -0.00002   0.00005   0.00064
   5  C 1   pz      -0.00001  -0.00010   0.00020   0.00001  -0.00005  -0.00006
   6  C 1   s       -0.00016   0.00034   0.00044  -0.00037   0.00051  -0.01748
   7  C 1   px       0.00028   0.00021   0.00014  -0.00006  -0.00028   0.00161
   8  C 1   py      -0.00005  -0.00052   0.00070  -0.00004   0.00083   0.00187
   9  C 1   pz       0.00013   0.00034  -0.00010  -0.00005   0.00009   0.00010
  10  C 1   s       -0.00746   0.00519   0.01228  -0.00644  -0.01114  -0.02547
  11  C 1   px       0.00150  -0.00152  -0.00106   0.00129   0.00193   0.00555
  12  C 1   py       0.00117   0.00186  -0.00379   0.00171   0.00077   0.00394
  13  C 1   pz       0.00030  -0.00142   0.00077  -0.00017   0.00082   0.00102
  14  C 1   dxx     -0.00001  -0.00013  -0.00006   0.00002   0.00001  -0.00858
  15  C 1   dxy     -0.00001  -0.00001  -0.00002  -0.00005  -0.00004  -0.00003
  16  C 1   dyy      0.00000  -0.00024  -0.00008  -0.00006   0.00000  -0.00802
  17  C 1   dxz      0.00001   0.00003   0.00006   0.00001  -0.00003   0.00018
  18  C 1   dyz      0.00000   0.00003  -0.00005   0.00001   0.00000  -0.00039
  19  C 1   dzz      0.00002  -0.00017  -0.00011   0.00003  -0.00011  -0.00862
  20  O 1   s        0.00000   0.99255   0.00018  -0.00001   0.00001  -0.00005
  21  O 1   s        0.00003   0.02514   0.00011   0.00001   0.00009   0.00050
  22  O 1   px      -0.00001  -0.00024   0.00000  -0.00001  -0.00003  -0.00001
  23  O 1   py       0.00000  -0.00096   0.00001  -0.00002  -0.00004   0.00007
  24  O 1   pz       0.00000   0.00027  -0.00001   0.00000   0.00001  -0.00002
  25  O 1   s       -0.00012   0.01590  -0.00042   0.00004  -0.00042  -0.00237
  26  O 1   px       0.00001  -0.00005  -0.00004   0.00007   0.00033   0.00022
  27  O 1   py       0.00000   0.00040   0.00019   0.00003   0.00041   0.00114
  28  O 1   pz      -0.00003  -0.00018  -0.00010   0.00004  -0.00015  -0.00038
  29  O 1   s        0.00040  -0.00884  -0.00067  -0.00023  -0.00317   0.00439
  30  O 1   px      -0.00002   0.00068   0.00054  -0.00009   0.00110  -0.00112
  31  O 1   py      -0.00009   0.00052   0.00027  -0.00004   0.00058  -0.00261
  32  O 1   pz       0.00010   0.00011   0.00013  -0.00003   0.00052   0.00059
  33  O 1   dxx      0.00002  -0.00868   0.00003   0.00000   0.00001   0.00041
  34  O 1   dxy      0.00000   0.00001   0.00007  -0.00001  -0.00008  -0.00010
  35  O 1   dyy      0.00002  -0.00872  -0.00004   0.00002   0.00003  -0.00016
  36  O 1   dxz      0.00000   0.00000  -0.00004   0.00000   0.00000  -0.00001
  37  O 1   dyz      0.00001   0.00002   0.00008  -0.00002   0.00001   0.00024
  38  O 1   dzz      0.00003  -0.00870   0.00000   0.00001   0.00004   0.00039
  39  O 2   s        0.00001  -0.00017   0.99258   0.00004  -0.00002  -0.00005
  40  O 2   s        0.00006   0.00005   0.02509   0.00008  -0.00008   0.00019
  41  O 2   px      -0.00001   0.00001  -0.00064  -0.00003  -0.00002   0.00006
  42  O 2   py       0.00000  -0.00002   0.00049  -0.00002   0.00001  -0.00003
  43  O 2   pz       0.00001   0.00001  -0.00053  -0.00001   0.00003   0.00005
  44  O 2   s       -0.00036  -0.00018   0.01557  -0.00027   0.00056  -0.00023
  45  O 2   px       0.00009   0.00003   0.00031   0.00001   0.00000  -0.00004
  46  O 2   py      -0.00002  -0.00007  -0.00047  -0.00003  -0.00004  -0.00030
  47  O 2   pz       0.00001   0.00004   0.00034   0.00003  -0.00018   0.00009
  48  O 2   s        0.00026  -0.00036  -0.00934   0.00068  -0.00109   0.00426
  49  O 2   px       0.00007   0.00047   0.00091  -0.00023   0.00050  -0.00184
  50  O 2   py      -0.00006   0.00008   0.00020   0.00000  -0.00019   0.00004
  51  O 2   pz       0.00025   0.00020   0.00035  -0.00015   0.00037  -0.00093
  52  O 2   dxx      0.00003   0.00005  -0.00868   0.00004  -0.00006   0.00004
  53  O 2   dxy      0.00000   0.00005   0.00007   0.00001   0.00002   0.00018
  54  O 2   dyy      0.00004  -0.00010  -0.00866   0.00007  -0.00003   0.00007
  55  O 2   dxz     -0.00001   0.00000  -0.00007  -0.00002   0.00001  -0.00022
  56  O 2   dyz      0.00001   0.00008   0.00006   0.00001   0.00000   0.00018
  57  O 2   dzz      0.00005  -0.00001  -0.00866   0.00006  -0.00002   0.00011
  58  C 2   s        0.00000   0.00000   0.00000  -0.00005   0.00184   0.00191
  59  C 2   s        0.00002  -0.00002   0.00000  -0.00003  -0.00002  -0.00006
  60  C 2   px       0.00000   0.00003   0.00001   0.00003   0.00002  -0.00004
  61  C 2   py      -0.00003   0.00001  -0.00002  -0.00030   0.00002   0.00002
  62  C 2   pz       0.00000   0.00001   0.00001   0.00014  -0.00007  -0.00004
  63  C 2   s        0.00018   0.00032   0.00044   0.00041   0.00367   0.00369
  64  C 2   px      -0.00006  -0.00012   0.00019  -0.00005  -0.00138   0.00178
  65  C 2   py      -0.00017   0.00005  -0.00020  -0.00022   0.00059  -0.00047
  66  C 2   pz       0.00009   0.00007   0.00010   0.00010   0.00084   0.00112
  67  C 2   s        0.00978   0.01187   0.01691   0.03035   0.05589   0.04392
  68  C 2   px       0.00332  -0.00064  -0.00716  -0.00195  -0.00149   0.00377
  69  C 2   py       0.00046   0.00081   0.00143  -0.00204   0.00953   0.00512
  70  C 2   pz      -0.00344   0.00017  -0.00161   0.00389  -0.00544   0.00349
  71  C 2   dxx     -0.00003   0.00001  -0.00002  -0.00006  -0.00027  -0.00032
  72  C 2   dxy     -0.00001  -0.00002   0.00000  -0.00004   0.00003  -0.00012
  73  C 2   dyy      0.00003  -0.00001   0.00002   0.00029  -0.00012  -0.00018
  74  C 2   dxz      0.00003   0.00001  -0.00002   0.00002   0.00013  -0.00008
  75  C 2   dyz      0.00000  -0.00001  -0.00001  -0.00019  -0.00003  -0.00009
  76  C 2   dzz      0.00000   0.00001   0.00001   0.00001  -0.00013  -0.00013
  77  C 3   s        0.00001   0.00000   0.00001   0.00001  -0.00004  -0.00003
  78  C 3   s        0.00005  -0.00001   0.00005   0.00013  -0.00011  -0.00002
  79  C 3   px       0.00001   0.00001  -0.00001   0.00000   0.00012  -0.00011
  80  C 3   py       0.00002   0.00001   0.00001   0.00003  -0.00001   0.00001
  81  C 3   pz       0.00001   0.00000   0.00001  -0.00001  -0.00003  -0.00005
  82  C 3   s       -0.00039  -0.00023  -0.00043  -0.00027  -0.00021  -0.00023
  83  C 3   px       0.00000   0.00004  -0.00007  -0.00005  -0.00064   0.00030
  84  C 3   py      -0.00015  -0.00007  -0.00006  -0.00009  -0.00013  -0.00009
  85  C 3   pz      -0.00021   0.00001  -0.00031   0.00002  -0.00040  -0.00044
  86  C 3   s       -0.00864  -0.00498  -0.00805  -0.00394  -0.02140  -0.00599
  87  C 3   px      -0.00019  -0.00054   0.00016   0.00000  -0.00048  -0.00031
  88  C 3   py      -0.00038  -0.00068  -0.00051   0.00065  -0.00232  -0.00069
  89  C 3   pz      -0.00220  -0.00119  -0.00207  -0.00120  -0.00507  -0.00176
  90  C 3   dxx      0.00002   0.00000   0.00001   0.00002   0.00001  -0.00004
  91  C 3   dxy      0.00001   0.00002  -0.00001   0.00001  -0.00004   0.00003
  92  C 3   dyy      0.00000   0.00002   0.00001  -0.00002  -0.00009  -0.00002
  93  C 3   dxz      0.00001   0.00002  -0.00001  -0.00001  -0.00005  -0.00002
  94  C 3   dyz      0.00000   0.00001   0.00000   0.00006   0.00005   0.00002
  95  C 3   dzz      0.00000   0.00000  -0.00001  -0.00005  -0.00001  -0.00004
  96  O 3   s        0.00002   0.00001   0.00001   0.99258  -0.00003  -0.00001
  97  O 3   s        0.00014  -0.00001   0.00014   0.02498  -0.00015  -0.00003
  98  O 3   px      -0.00003   0.00001   0.00003  -0.00016   0.00001  -0.00004
  99  O 3   py       0.00003   0.00001   0.00003   0.00079  -0.00002  -0.00002
 100  O 3   pz       0.00000   0.00000  -0.00001  -0.00046  -0.00001  -0.00004
 101  O 3   s       -0.00069   0.00012  -0.00071   0.01583   0.00050  -0.00059
 102  O 3   px      -0.00001  -0.00007   0.00000   0.00014   0.00004   0.00019
 103  O 3   py      -0.00017  -0.00010  -0.00020  -0.00075  -0.00011  -0.00048
 104  O 3   pz       0.00009   0.00000   0.00013   0.00042   0.00009   0.00041
 105  O 3   s        0.00013  -0.00134  -0.00029  -0.01148  -0.00511  -0.00425
 106  O 3   px      -0.00028   0.00012   0.00046   0.00002   0.00101  -0.00079
 107  O 3   py       0.00034  -0.00030   0.00025  -0.00070  -0.00186  -0.00054
 108  O 3   pz       0.00010   0.00013   0.00001   0.00015   0.00029  -0.00043
 109  O 3   dxx      0.00011  -0.00001   0.00011  -0.00863  -0.00005   0.00001
 110  O 3   dxy      0.00000  -0.00002   0.00000   0.00003  -0.00003   0.00009
 111  O 3   dyy      0.00008  -0.00004   0.00007  -0.00886  -0.00009  -0.00002
 112  O 3   dxz      0.00000   0.00001   0.00000  -0.00002  -0.00004   0.00004
 113  O 3   dyz      0.00002   0.00000   0.00002   0.00013   0.00000   0.00002
 114  O 3   dzz      0.00010  -0.00001   0.00011  -0.00867  -0.00011  -0.00010
 115  C 4   s       -0.00002   0.00000   0.00000   0.00002   0.99316   0.00002
 116  C 4   s        0.00036   0.00000   0.00003   0.00015   0.04996  -0.00008
 117  C 4   px      -0.00023   0.00002  -0.00001   0.00000  -0.00067  -0.00011
 118  C 4   py      -0.00019   0.00001  -0.00001  -0.00001   0.00002  -0.00002
 119  C 4   pz       0.00022   0.00002   0.00000   0.00000   0.00049  -0.00001
 120  C 4   s        0.00000  -0.00031  -0.00021  -0.00026  -0.01939  -0.00061
 121  C 4   px       0.00022  -0.00017  -0.00013  -0.00005  -0.00200   0.00050
 122  C 4   py       0.00069   0.00021   0.00012   0.00010  -0.00183   0.00076
 123  C 4   pz      -0.00042  -0.00006   0.00002   0.00003   0.00200  -0.00049
 124  C 4   s        0.01177  -0.00955  -0.01864  -0.01145  -0.02841  -0.00546
 125  C 4   px       0.00035  -0.00201  -0.00412  -0.00401  -0.00256  -0.00328
 126  C 4   py      -0.00204   0.00002   0.00178   0.00472  -0.00486   0.00283
 127  C 4   pz       0.00105   0.00038   0.00132   0.00028   0.00331  -0.00009
 128  C 4   dxx     -0.00018   0.00003  -0.00002   0.00000  -0.00857  -0.00002
 129  C 4   dxy     -0.00002   0.00002   0.00000   0.00005   0.00024   0.00001
 130  C 4   dyy     -0.00016   0.00002   0.00000  -0.00005  -0.00853  -0.00004
 131  C 4   dxz      0.00002   0.00000   0.00000  -0.00001  -0.00040   0.00001
 132  C 4   dyz      0.00001  -0.00001   0.00000   0.00001  -0.00034   0.00005
 133  C 4   dzz     -0.00017   0.00000   0.00001   0.00003  -0.00861  -0.00008
 134  O 4   s        0.99258   0.00001   0.00002   0.00003  -0.00004  -0.00003
 135  O 4   s        0.02508   0.00001   0.00005   0.00007   0.00050  -0.00013
 136  O 4   px       0.00059   0.00000   0.00002   0.00003  -0.00005   0.00004
 137  O 4   py       0.00065   0.00000   0.00000  -0.00002  -0.00003   0.00000
 138  O 4   pz      -0.00066   0.00001   0.00001   0.00000   0.00004   0.00001
 139  O 4   s        0.01583  -0.00006  -0.00025  -0.00031  -0.00243   0.00104
 140  O 4   px      -0.00016   0.00003  -0.00008  -0.00003  -0.00084   0.00008
 141  O 4   py      -0.00039  -0.00002   0.00001   0.00001  -0.00072   0.00014
 142  O 4   pz       0.00029  -0.00004  -0.00004   0.00000   0.00080  -0.00020
 143  O 4   s       -0.00873   0.00060   0.00069   0.00082   0.00418  -0.00113
 144  O 4   px      -0.00065   0.00014   0.00019   0.00037   0.00185  -0.00027
 145  O 4   py       0.00017   0.00001  -0.00005  -0.00032   0.00160  -0.00019
 146  O 4   pz       0.00023   0.00004   0.00019  -0.00004  -0.00166   0.00014
 147  O 4   dxx     -0.00865   0.00001   0.00003   0.00005   0.00014  -0.00007
 148  O 4   dxy     -0.00002  -0.00001   0.00000  -0.00002  -0.00027   0.00001
 149  O 4   dyy     -0.00865   0.00001   0.00004   0.00006   0.00020  -0.00005
 150  O 4   dxz      0.00002   0.00000   0.00000   0.00002   0.00036  -0.00002
 151  O 4   dyz      0.00002   0.00001   0.00000   0.00001   0.00029  -0.00001
 152  O 4   dzz     -0.00866   0.00000   0.00004   0.00005   0.00019  -0.00004
 153  C 5   s        0.00001   0.00001   0.00000   0.00001   0.00309  -0.00006
 154  C 5   s        0.00012   0.00001   0.00001   0.00002  -0.00007  -0.00002
 155  C 5   px       0.00002   0.00001   0.00001   0.00001  -0.00006  -0.00005
 156  C 5   py       0.00001   0.00000   0.00000  -0.00003   0.00019   0.00001
 157  C 5   pz      -0.00003  -0.00001  -0.00001   0.00001  -0.00002  -0.00001
 158  C 5   s       -0.00053  -0.00037  -0.00004  -0.00016   0.00547   0.00009
 159  C 5   px      -0.00018   0.00010  -0.00006  -0.00010   0.00131  -0.00016
 160  C 5   py       0.00020   0.00004   0.00006   0.00010  -0.00182   0.00049
 161  C 5   pz       0.00013   0.00002   0.00001  -0.00005  -0.00039  -0.00006
 162  C 5   s       -0.00160   0.00181   0.00223  -0.00364   0.01190  -0.00401
 163  C 5   px       0.00019   0.00020   0.00080   0.00032   0.00057   0.00052
 164  C 5   py       0.00051  -0.00060  -0.00049   0.00064  -0.00222   0.00107
 165  C 5   pz      -0.00041   0.00005  -0.00006  -0.00035   0.00051  -0.00029
 166  C 5   dxx     -0.00001   0.00006   0.00000   0.00001  -0.00012  -0.00008
 167  C 5   dxy     -0.00003   0.00000   0.00000   0.00001   0.00004   0.00006
 168  C 5   dyy     -0.00004   0.00001   0.00000   0.00003  -0.00054  -0.00002
 169  C 5   dxz      0.00003   0.00000   0.00000   0.00000  -0.00001   0.00001
 170  C 5   dyz      0.00005   0.00000   0.00000  -0.00001   0.00017  -0.00002
 171  C 5   dzz     -0.00002   0.00000   0.00000   0.00001  -0.00012  -0.00001
 172  H 1   s        0.00004   0.00004   0.00004   0.00001  -0.00005   0.00009
 173  H 1   s       -0.00007   0.00004  -0.00022  -0.00006  -0.00222  -0.00132
 174  H 2   s        0.00000   0.00003   0.00001   0.00000  -0.00015  -0.00003
 175  H 2   s       -0.00008   0.00012  -0.00006   0.00004  -0.00024  -0.00072
 176  H 3   s        0.00000   0.00001   0.00000   0.00000  -0.00007  -0.00002
 177  H 3   s        0.00007   0.00012  -0.00002  -0.00004  -0.00018  -0.00017
 178  H 4   s       -0.00003  -0.00001   0.00001  -0.00001  -0.00009   0.00002
 179  H 4   s        0.00004   0.00012  -0.00014  -0.00002  -0.00078  -0.00010
 180  H 5   s        0.00001  -0.00001  -0.00002   0.00001   0.00004   0.00000
 181  H 5   s       -0.00013  -0.00003  -0.00003   0.00015  -0.00004  -0.00076
 182  H 6   s        0.00001  -0.00001   0.00001   0.00003   0.00011   0.00001
 183  H 6   s        0.00008   0.00015  -0.00011  -0.00004  -0.00107  -0.00081
                         7         8         9        10        11        12
 eigenvalues:         -9.920    -9.914    -9.903    -0.723    -0.695    -0.587
   1  C 1   s        0.00005  -0.00215   0.00003  -0.01726  -0.13044  -0.02479
   2  C 1   s        0.00006  -0.00054  -0.00004   0.03525   0.25365   0.04990
   3  C 1   px       0.00004  -0.00008   0.00001   0.00072   0.06478   0.06310
   4  C 1   py      -0.00004  -0.00008   0.00008   0.00786   0.10162  -0.19012
   5  C 1   pz       0.00002   0.00001   0.00010  -0.00089  -0.00529   0.10638
   6  C 1   s       -0.00050   0.00475   0.00079   0.00910   0.08358   0.03584
   7  C 1   px      -0.00016  -0.00492   0.00062  -0.00074  -0.03812  -0.00827
   8  C 1   py       0.00115  -0.00514   0.00038  -0.00555  -0.02637   0.02990
   9  C 1   pz      -0.00085  -0.00059  -0.00035  -0.00446  -0.00742  -0.01397
  10  C 1   s       -0.00742  -0.00046  -0.00593  -0.02471   0.19660   0.11121
  11  C 1   px       0.00203   0.00007   0.00142   0.00638  -0.04822  -0.01393
  12  C 1   py       0.00059  -0.00002  -0.00026   0.00944  -0.02093  -0.04755
  13  C 1   pz       0.00080   0.00011   0.00062  -0.00348  -0.01728   0.01093
  14  C 1   dxx     -0.00013  -0.00020  -0.00005  -0.00074  -0.01306   0.01387
  15  C 1   dxy      0.00008  -0.00012   0.00003   0.00067   0.00075  -0.01314
  16  C 1   dyy      0.00000  -0.00021   0.00000   0.00104   0.01024  -0.01754
  17  C 1   dxz     -0.00005  -0.00001   0.00001   0.00127   0.00501   0.01548
  18  C 1   dyz      0.00003  -0.00009  -0.00004  -0.00124  -0.01398  -0.00027
  19  C 1   dzz     -0.00003  -0.00016   0.00001  -0.00132  -0.01507   0.00476
  20  O 1   s        0.00000  -0.00008   0.00002  -0.01740  -0.16183   0.11713
  21  O 1   s        0.00004  -0.00041   0.00011   0.03756   0.34822  -0.24985
  22  O 1   px       0.00006   0.00000  -0.00002  -0.00347  -0.02117   0.02545
  23  O 1   py      -0.00001   0.00010  -0.00004  -0.01402  -0.12558   0.05889
  24  O 1   pz      -0.00002  -0.00003   0.00000   0.00423   0.03885  -0.01055
  25  O 1   s       -0.00050   0.00249  -0.00051   0.03636   0.34925  -0.28541
  26  O 1   px      -0.00010   0.00043   0.00011  -0.00157  -0.00701   0.01632
  27  O 1   py       0.00025  -0.00113   0.00045  -0.00581  -0.04695   0.02509
  28  O 1   pz       0.00010   0.00064   0.00001   0.00230   0.01577  -0.00275
  29  O 1   s       -0.00002   0.00385  -0.00279   0.00484  -0.03457  -0.01497
  30  O 1   px       0.00023  -0.00048   0.00107  -0.00315   0.01149   0.00395
  31  O 1   py       0.00031  -0.00106   0.00082  -0.00058   0.00384   0.01511
  32  O 1   pz      -0.00029   0.00007   0.00035   0.00009   0.00444  -0.00296
  33  O 1   dxx      0.00000  -0.00025   0.00005  -0.00067  -0.00851   0.00572
  34  O 1   dxy      0.00001  -0.00007  -0.00003   0.00062   0.00268  -0.00361
  35  O 1   dyy     -0.00004  -0.00008   0.00000   0.00097   0.00807   0.00173
  36  O 1   dxz     -0.00001   0.00009  -0.00003  -0.00031  -0.00249   0.00145
  37  O 1   dyz     -0.00001  -0.00015  -0.00002  -0.00064  -0.00545   0.00028
  38  O 1   dzz     -0.00002  -0.00023   0.00009  -0.00050  -0.00618   0.00669
  39  O 2   s       -0.00002  -0.00002  -0.00001  -0.01031  -0.09095  -0.15331
  40  O 2   s       -0.00010  -0.00012  -0.00004   0.02311   0.19715   0.33295
  41  O 2   px       0.00000   0.00003  -0.00001  -0.00672  -0.05101  -0.07295
  42  O 2   py       0.00000  -0.00007  -0.00001   0.00474   0.04595   0.03406
  43  O 2   pz       0.00001   0.00004  -0.00004  -0.00536  -0.04509  -0.05236
  44  O 2   s        0.00076   0.00010   0.00028   0.01895   0.19483   0.35467
  45  O 2   px      -0.00034   0.00048   0.00003  -0.00237  -0.02017  -0.03052
  46  O 2   py       0.00012   0.00085  -0.00005   0.00309   0.02567   0.01060
  47  O 2   pz      -0.00025  -0.00006   0.00022  -0.00137  -0.02107  -0.02054
  48  O 2   s        0.00123   0.00019  -0.00203   0.00312  -0.02797  -0.02615
  49  O 2   px      -0.00057   0.00011   0.00059   0.00039   0.01140   0.00129
  50  O 2   py       0.00023   0.00027  -0.00012   0.00029  -0.00008   0.00695
  51  O 2   pz       0.00004  -0.00007   0.00037   0.00188   0.00455  -0.00360
  52  O 2   dxx      0.00001  -0.00019  -0.00001   0.00057   0.00097  -0.00029
  53  O 2   dxy     -0.00005  -0.00004   0.00001  -0.00086  -0.00721  -0.00404
  54  O 2   dyy     -0.00006   0.00008  -0.00001   0.00016  -0.00108  -0.00791
  55  O 2   dxz      0.00005   0.00001  -0.00003   0.00054   0.00566   0.00500
  56  O 2   dyz     -0.00001  -0.00013   0.00001  -0.00044  -0.00504  -0.00131
  57  O 2   dzz     -0.00004  -0.00012  -0.00006   0.00028   0.00070  -0.00310
  58  C 2   s       -0.00096   0.99356  -0.01054  -0.02633  -0.02123  -0.05378
  59  C 2   s       -0.00048   0.05153  -0.00092   0.04795   0.04052   0.10520
  60  C 2   px       0.00007  -0.00025   0.00010  -0.02077   0.02167   0.01133
  61  C 2   py      -0.00007   0.00023   0.00004   0.00271   0.01081  -0.04531
  62  C 2   pz      -0.00004  -0.00014   0.00005   0.01448   0.00535   0.02017
  63  C 2   s        0.00198  -0.03589   0.00584   0.02038   0.00228   0.05932
  64  C 2   px      -0.00064   0.00085  -0.00122  -0.00540  -0.00498   0.01409
  65  C 2   py      -0.00050   0.00092  -0.00123  -0.01759   0.00243  -0.01213
  66  C 2   pz       0.00066  -0.00268  -0.00233   0.00896  -0.00718   0.00878
  67  C 2   s        0.00871  -0.02371   0.06228   0.02595  -0.03117   0.10029
  68  C 2   px       0.00209   0.00328  -0.00634   0.01433  -0.05149  -0.07036
  69  C 2   py      -0.00047  -0.00287   0.00540  -0.01886  -0.00049   0.00615
  70  C 2   pz      -0.00306   0.00172  -0.00556  -0.00901   0.00745   0.00518
  71  C 2   dxx     -0.00002  -0.00823  -0.00004   0.00420   0.00237  -0.00254
  72  C 2   dxy      0.00000  -0.00003  -0.00002  -0.00167   0.00418  -0.00165
  73  C 2   dyy     -0.00017  -0.00823  -0.00010   0.00014   0.00262   0.00202
  74  C 2   dxz     -0.00007   0.00000  -0.00004  -0.00351   0.00219   0.00294
  75  C 2   dyz      0.00000   0.00012  -0.00005   0.00017   0.00069  -0.00400
  76  C 2   dzz     -0.00009  -0.00807  -0.00022  -0.00006  -0.00085  -0.00120
  77  C 3   s        0.00003   0.01023   0.99301  -0.00600  -0.00610  -0.01990
  78  C 3   s        0.00017   0.00005   0.05023   0.01248   0.01083   0.03758
  79  C 3   px      -0.00001  -0.00003  -0.00017  -0.00128   0.00292   0.00283
  80  C 3   py      -0.00001  -0.00001   0.00009   0.00173   0.00230  -0.00338
  81  C 3   pz       0.00002   0.00011   0.00005   0.00748   0.00641   0.02039
  82  C 3   s       -0.00070   0.00731  -0.02012   0.00398   0.00736   0.03448
  83  C 3   px       0.00039   0.00025   0.00021   0.00498  -0.00210  -0.00530
  84  C 3   py      -0.00003   0.00024  -0.00004  -0.00024  -0.00081  -0.00102
  85  C 3   pz      -0.00059   0.00325  -0.00288   0.00054   0.00192   0.00269
  86  C 3   s       -0.00734   0.00742  -0.02826  -0.04734  -0.00007  -0.00623
  87  C 3   px       0.00001   0.00001   0.00045   0.00104  -0.00435   0.00314
  88  C 3   py       0.00007   0.00070  -0.00187  -0.00016  -0.00426   0.00363
  89  C 3   pz      -0.00186   0.00105  -0.00670  -0.01448   0.00078  -0.00240
  90  C 3   dxx      0.00003  -0.00027  -0.00891  -0.00022  -0.00038  -0.00067
  91  C 3   dxy      0.00002   0.00001   0.00007   0.00020   0.00014  -0.00034
  92  C 3   dyy      0.00002  -0.00023  -0.00889  -0.00003  -0.00007  -0.00062
  93  C 3   dxz      0.00004  -0.00002   0.00002   0.00035   0.00042   0.00034
  94  C 3   dyz     -0.00002  -0.00013  -0.00007   0.00048   0.00026  -0.00001
  95  C 3   dzz      0.00000  -0.00050  -0.00910   0.00105   0.00093   0.00289
  96  O 3   s       -0.00002  -0.00018  -0.00001  -0.01574  -0.01108  -0.07556
  97  O 3   s       -0.00008  -0.00067  -0.00006   0.03584   0.02399   0.16272
  98  O 3   px       0.00002   0.00002  -0.00001  -0.00537   0.00244  -0.00155
  99  O 3   py      -0.00004  -0.00011  -0.00002   0.01409   0.01011   0.04752
 100  O 3   pz       0.00000   0.00008   0.00004  -0.00422  -0.00361  -0.02252
 101  O 3   s       -0.00012   0.00618  -0.00048   0.01985   0.02762   0.16295
 102  O 3   px      -0.00009  -0.00041   0.00018  -0.00304  -0.00120   0.00100
 103  O 3   py       0.00003   0.00253  -0.00026   0.00093   0.00343   0.02110
 104  O 3   pz       0.00009  -0.00121   0.00009   0.00137  -0.00256  -0.00923
 105  O 3   s       -0.00076   0.00602  -0.00391  -0.01139  -0.01280  -0.02933
 106  O 3   px      -0.00017  -0.00020  -0.00021   0.00023   0.00228   0.00099
 107  O 3   py       0.00005   0.00206  -0.00042   0.00041  -0.00922  -0.00838
 108  O 3   pz       0.00014  -0.00084   0.00064  -0.00028   0.00238   0.00204
 109  O 3   dxx     -0.00004  -0.00036  -0.00012   0.00090  -0.00036  -0.00374
 110  O 3   dxy     -0.00005  -0.00001   0.00001  -0.00119  -0.00022  -0.00002
 111  O 3   dyy     -0.00003  -0.00040  -0.00004   0.00213   0.00109   0.00389
 112  O 3   dxz     -0.00003   0.00001   0.00003  -0.00025   0.00004   0.00074
 113  O 3   dyz     -0.00002   0.00007  -0.00001  -0.00063  -0.00074  -0.00387
 114  O 3   dzz     -0.00010  -0.00033   0.00006   0.00040   0.00041  -0.00233
 115  C 4   s       -0.00335  -0.00206   0.00002  -0.11696   0.00976  -0.00387
 116  C 4   s       -0.00044  -0.00048  -0.00004   0.22597  -0.01916   0.00756
 117  C 4   px       0.00011   0.00000  -0.00002  -0.10108   0.02593   0.02891
 118  C 4   py      -0.00016   0.00008   0.00004  -0.07063   0.01175  -0.00662
 119  C 4   pz       0.00005   0.00000   0.00013   0.09375  -0.01824  -0.01636
 120  C 4   s        0.00447   0.00739  -0.00121   0.09320  -0.00766   0.02408
 121  C 4   px      -0.00019   0.00493  -0.00058   0.02724  -0.00027   0.00369
 122  C 4   py       0.00601  -0.00564   0.00122   0.04334  -0.00887  -0.00059
 123  C 4   pz      -0.00236  -0.00090  -0.00034  -0.03421   0.00334  -0.00430
 124  C 4   s        0.01237   0.00543  -0.01416   0.15418  -0.18837  -0.17678
 125  C 4   px       0.00212   0.00217  -0.00386  -0.00524  -0.03514  -0.04180
 126  C 4   py       0.00064  -0.00304   0.00458   0.01534   0.00193   0.02420
 127  C 4   pz      -0.00179  -0.00072   0.00062   0.00173   0.00925   0.01237
 128  C 4   dxx     -0.00016  -0.00023  -0.00007  -0.00204   0.00118   0.00124
 129  C 4   dxy     -0.00001   0.00008  -0.00002   0.01255  -0.00249  -0.00342
 130  C 4   dyy     -0.00026  -0.00009  -0.00008  -0.00782   0.00109   0.00086
 131  C 4   dxz      0.00007   0.00005   0.00004  -0.01692   0.00194  -0.00015
 132  C 4   dyz      0.00010  -0.00014   0.00002  -0.01232   0.00194   0.00175
 133  C 4   dzz     -0.00013  -0.00016   0.00001  -0.00437  -0.00013  -0.00017
 134  O 4   s       -0.00008  -0.00001  -0.00003  -0.18979   0.02899   0.01677
 135  O 4   s       -0.00042  -0.00005  -0.00013   0.41005  -0.06227  -0.03563
 136  O 4   px      -0.00006  -0.00002   0.00001   0.08712  -0.01151  -0.00091
 137  O 4   py      -0.00001  -0.00006  -0.00001   0.07828  -0.01169  -0.00861
 138  O 4   pz       0.00004   0.00003  -0.00004  -0.08784   0.01263   0.00417
 139  O 4   s        0.00243  -0.00064   0.00107   0.42925  -0.06939  -0.04517
 140  O 4   px       0.00103  -0.00072   0.00021   0.03509  -0.00450  -0.00146
 141  O 4   py       0.00000   0.00065   0.00007   0.03456  -0.00437  -0.00454
 142  O 4   pz      -0.00069   0.00023  -0.00004  -0.03725   0.00460   0.00272
 143  O 4   s        0.00050  -0.00019  -0.00238  -0.03497   0.02669   0.01518
 144  O 4   px      -0.00007  -0.00028  -0.00092  -0.00284   0.00739   0.00526
 145  O 4   py       0.00055   0.00041  -0.00029  -0.00109  -0.00020   0.00026
 146  O 4   pz       0.00027  -0.00016   0.00100   0.00065  -0.00154  -0.00029
 147  O 4   dxx     -0.00011  -0.00015  -0.00002  -0.00361   0.00102   0.00153
 148  O 4   dxy      0.00003  -0.00001   0.00003   0.00929  -0.00129  -0.00101
 149  O 4   dyy     -0.00017   0.00012  -0.00006  -0.00653   0.00120   0.00084
 150  O 4   dxz     -0.00016   0.00000   0.00001  -0.00718   0.00085   0.00009
 151  O 4   dyz     -0.00007  -0.00012  -0.00002  -0.00640   0.00086   0.00075
 152  O 4   dzz     -0.00022  -0.00011  -0.00007  -0.00170   0.00044   0.00079
 153  C 5   s        0.99295   0.00076   0.00002  -0.02728  -0.00092   0.00189
 154  C 5   s        0.05120  -0.00048   0.00017   0.05378   0.00052  -0.00027
 155  C 5   px       0.00027  -0.00011   0.00002   0.00172   0.00455   0.00166
 156  C 5   py      -0.00005   0.00006   0.00002  -0.03278   0.00245  -0.00132
 157  C 5   pz       0.00003   0.00000   0.00003   0.01337  -0.00179  -0.00157
 158  C 5   s       -0.02323   0.00418  -0.00142  -0.00542   0.00879  -0.01347
 159  C 5   px      -0.00269   0.00027  -0.00044  -0.01816   0.00443  -0.00998
 160  C 5   py       0.00305  -0.00174   0.00066   0.01072  -0.00388   0.00484
 161  C 5   pz      -0.00031   0.00103  -0.00009   0.00668  -0.00042  -0.00121
 162  C 5   s       -0.00670   0.00627  -0.00593  -0.08007   0.04859   0.00172
 163  C 5   px      -0.00068   0.00081  -0.00032  -0.00064   0.00617   0.00348
 164  C 5   py       0.00148  -0.00120   0.00116   0.01785  -0.01285   0.00101
 165  C 5   pz       0.00023   0.00049  -0.00027  -0.01087   0.00159   0.00038
 166  C 5   dxx     -0.00907  -0.00014   0.00000  -0.00047   0.00080   0.00012
 167  C 5   dxy      0.00007   0.00004   0.00003   0.00072  -0.00037  -0.00043
 168  C 5   dyy     -0.00928  -0.00006   0.00001   0.00606  -0.00091   0.00028
 169  C 5   dxz      0.00002  -0.00007  -0.00001   0.00075  -0.00006  -0.00002
 170  C 5   dyz      0.00001  -0.00008  -0.00005  -0.00372   0.00045   0.00035
 171  C 5   dzz     -0.00914  -0.00015   0.00004   0.00002  -0.00036   0.00049
 172  H 1   s        0.00009  -0.00019   0.00004   0.01092   0.00284  -0.00043
 173  H 1   s        0.00441   0.00069  -0.00072   0.00653   0.00164   0.00432
 174  H 2   s        0.00004  -0.00005   0.00006   0.01288   0.00305  -0.00176
 175  H 2   s        0.00423  -0.00090  -0.00021   0.00143   0.00214   0.00325
 176  H 3   s       -0.00015  -0.00009   0.00003   0.01101  -0.00072  -0.00128
 177  H 3   s        0.00230   0.00007  -0.00029  -0.00360   0.00160  -0.00450
 178  H 4   s        0.00007  -0.00026  -0.00005   0.00267   0.00125   0.00815
 179  H 4   s       -0.00007   0.00007   0.00293   0.00505  -0.00010  -0.00541
 180  H 5   s        0.00002  -0.00011   0.00007   0.00228   0.00266   0.01315
 181  H 5   s       -0.00016  -0.00051   0.00290  -0.00129   0.00397   0.00217
 182  H 6   s        0.00008  -0.00027  -0.00011   0.00198   0.00366   0.00727
 183  H 6   s       -0.00045   0.00029   0.00228   0.00400   0.00192  -0.00552
                        13        14        15        16        17        18
 eigenvalues:         -0.565    -0.493    -0.417    -0.328    -0.238    -0.194
   1  C 1   s        0.01102  -0.00168  -0.01047  -0.04108  -0.08296   0.05891
   2  C 1   s       -0.02398   0.00363   0.02233   0.08553   0.17955  -0.13140
   3  C 1   px      -0.09123  -0.01240  -0.02308  -0.10584  -0.13954   0.03406
   4  C 1   py       0.04376  -0.02066  -0.02114  -0.04374  -0.09275   0.03338
   5  C 1   pz      -0.06821   0.00754  -0.01911  -0.01748  -0.06640   0.04928
   6  C 1   s        0.00183  -0.00074   0.01023   0.08682   0.18722  -0.13083
   7  C 1   px       0.01199  -0.00148   0.00387  -0.02229  -0.03702   0.01069
   8  C 1   py      -0.01954   0.00587   0.00943   0.01341   0.01102   0.00385
   9  C 1   pz       0.01822  -0.00085  -0.00440  -0.00968  -0.03184   0.01954
  10  C 1   s       -0.07935   0.04725  -0.03224   0.08466  -0.05234  -0.00223
  11  C 1   px       0.01100  -0.00790   0.00392  -0.01661   0.00024   0.01028
  12  C 1   py       0.02323  -0.01519   0.00460  -0.01420   0.00220  -0.01450
  13  C 1   pz      -0.00080  -0.00109   0.00849  -0.00373   0.00148   0.00624
  14  C 1   dxx     -0.00074   0.00327   0.00183   0.00529  -0.00282   0.00589
  15  C 1   dxy      0.01229  -0.00213   0.00015   0.00336   0.00409  -0.00381
  16  C 1   dyy      0.00851  -0.00387  -0.00395  -0.00636  -0.00635   0.00222
  17  C 1   dxz     -0.00686   0.00160   0.00292   0.00146   0.00269  -0.00010
  18  C 1   dyz      0.00422   0.00091   0.00226   0.00236   0.00356  -0.00090
  19  C 1   dzz     -0.00211   0.00060   0.00115  -0.00419  -0.00535   0.00436
  20  O 1   s       -0.02782   0.01838   0.01402   0.02637   0.04422  -0.02659
  21  O 1   s        0.05860  -0.04047  -0.02989  -0.05577  -0.09566   0.05693
  22  O 1   px      -0.01710  -0.00619  -0.00416  -0.02865  -0.06112   0.00505
  23  O 1   py      -0.01059   0.01036  -0.00337  -0.01769  -0.06441   0.09378
  24  O 1   pz      -0.00484  -0.00294  -0.00749  -0.00180  -0.01621  -0.00102
  25  O 1   s        0.07421  -0.04718  -0.04359  -0.09281  -0.16341   0.10249
  26  O 1   px      -0.01037  -0.00292  -0.00157  -0.00998  -0.02654  -0.00108
  27  O 1   py      -0.00367   0.00366  -0.00061  -0.00241  -0.02041   0.04038
  28  O 1   pz      -0.00438  -0.00067  -0.00411  -0.00183  -0.01043   0.00182
  29  O 1   s        0.00277  -0.00120   0.00201  -0.01277  -0.03385   0.01062
  30  O 1   px      -0.00234   0.00067  -0.00164  -0.00167   0.00167   0.00673
  31  O 1   py      -0.00102  -0.00104   0.00088   0.00470   0.00415   0.00592
  32  O 1   pz      -0.00019   0.00047  -0.00059  -0.00350  -0.00133   0.00192
  33  O 1   dxx     -0.00066   0.00151   0.00088   0.00245   0.00291   0.00083
  34  O 1   dxy      0.00220   0.00023   0.00084   0.00294   0.00507  -0.00217
  35  O 1   dyy     -0.00206  -0.00005   0.00166   0.00312   0.00676  -0.00711
  36  O 1   dxz     -0.00063   0.00005   0.00030  -0.00044  -0.00048   0.00003
  37  O 1   dyz      0.00163   0.00010   0.00062  -0.00007   0.00093   0.00013
  38  O 1   dzz     -0.00224   0.00048   0.00056   0.00096   0.00003   0.00064
  39  O 2   s        0.09841  -0.01002  -0.00035   0.01860   0.03994  -0.03327
  40  O 2   s       -0.21221   0.02094   0.00116  -0.04184  -0.09150   0.07455
  41  O 2   px       0.03596  -0.00353  -0.00069  -0.01979  -0.06110   0.05074
  42  O 2   py      -0.03240   0.00154  -0.00027  -0.00716  -0.01550  -0.00694
  43  O 2   pz       0.03139  -0.00157  -0.00316  -0.00191  -0.03545   0.04660
  44  O 2   s       -0.24302   0.02912   0.00141  -0.04814  -0.11336   0.10934
  45  O 2   px       0.01870  -0.00299  -0.00090  -0.00982  -0.03260   0.02496
  46  O 2   py      -0.01688   0.00124   0.00006  -0.00310  -0.00950  -0.00015
  47  O 2   pz       0.01556  -0.00144  -0.00162  -0.00146  -0.01851   0.02155
  48  O 2   s        0.01777  -0.00591   0.00437   0.00050  -0.00372   0.00060
  49  O 2   px      -0.00478   0.00195   0.00092  -0.00126  -0.00062   0.00485
  50  O 2   py      -0.00191  -0.00163  -0.00184  -0.00066   0.00033  -0.00017
  51  O 2   pz      -0.00237  -0.00004   0.00014  -0.00132   0.00167   0.00397
  52  O 2   dxx      0.00254  -0.00042   0.00005   0.00276   0.00524  -0.00338
  53  O 2   dxy      0.00434  -0.00050  -0.00043  -0.00051  -0.00054   0.00080
  54  O 2   dyy      0.00495  -0.00130  -0.00076  -0.00097  -0.00231   0.00011
  55  O 2   dxz     -0.00274   0.00023   0.00034   0.00117   0.00452  -0.00384
  56  O 2   dyz      0.00205   0.00003   0.00009   0.00046   0.00017   0.00117
  57  O 2   dzz      0.00267  -0.00070   0.00059   0.00031   0.00191  -0.00253
  58  C 2   s       -0.10946  -0.01179  -0.05151  -0.09264  -0.04874  -0.00615
  59  C 2   s        0.21732   0.02119   0.09959   0.18914   0.09953   0.01471
  60  C 2   px      -0.00962  -0.03185  -0.02168  -0.05986   0.20860  -0.16517
  61  C 2   py      -0.07610   0.07686   0.07515   0.15823   0.06341   0.00380
  62  C 2   pz       0.01716  -0.02124  -0.13828   0.07897  -0.01421   0.02280
  63  C 2   s        0.11032   0.02004   0.10295   0.19343   0.13149   0.00223
  64  C 2   px       0.00217   0.00035   0.00210  -0.01129   0.05561  -0.05397
  65  C 2   py       0.03972   0.01005   0.01715   0.02972   0.02144  -0.00412
  66  C 2   pz      -0.02101  -0.00794  -0.01395   0.02199   0.00541   0.00248
  67  C 2   s       -0.03848  -0.10267  -0.20329  -0.21490   0.01376   0.18447
  68  C 2   px       0.03216  -0.02271   0.03309  -0.01429   0.04786  -0.04189
  69  C 2   py      -0.00346   0.01677   0.02340  -0.02212   0.01441   0.02910
  70  C 2   pz       0.03283   0.00672   0.00927  -0.01552  -0.06113  -0.04533
  71  C 2   dxx     -0.01109   0.00336   0.00019   0.00651  -0.00261  -0.00105
  72  C 2   dxy     -0.00251  -0.00348   0.00179  -0.00197   0.01236  -0.00509
  73  C 2   dyy      0.00684  -0.00491  -0.01505  -0.00813  -0.00284  -0.00238
  74  C 2   dxz      0.00024  -0.00033   0.00106  -0.00330   0.00345  -0.00229
  75  C 2   dyz     -0.00698   0.00576   0.00946   0.00675   0.00130  -0.00113
  76  C 2   dzz     -0.00388  -0.00051   0.01016  -0.01142  -0.00209  -0.00003
  77  C 3   s       -0.05264  -0.01625  -0.16549   0.08236   0.01552   0.00282
  78  C 3   s        0.09692   0.03100   0.31817  -0.16097  -0.02972  -0.00536
  79  C 3   px       0.00411  -0.00593  -0.00048  -0.00285   0.08960  -0.07623
  80  C 3   py      -0.00330   0.01432   0.01311   0.04783   0.04325   0.01491
  81  C 3   pz       0.04516   0.00483   0.01348   0.07790   0.05095   0.00017
  82  C 3   s        0.08231   0.02342   0.32170  -0.18349  -0.04240  -0.01410
  83  C 3   px      -0.00182  -0.00435  -0.00318   0.00217   0.04350  -0.03914
  84  C 3   py      -0.01396   0.00691   0.00672   0.01875   0.01789   0.00727
  85  C 3   pz       0.01348  -0.00397  -0.01225   0.02763   0.01780  -0.00379
  86  C 3   s        0.10481   0.04685   0.17685  -0.00201  -0.10192  -0.13058
  87  C 3   px      -0.00305   0.00400  -0.00255   0.00709   0.00133  -0.00321
  88  C 3   py       0.00837  -0.00600   0.00595   0.00403  -0.00567  -0.00934
  89  C 3   pz       0.03017   0.01428   0.04543   0.00746  -0.01883  -0.03260
  90  C 3   dxx     -0.00206  -0.00034  -0.00169  -0.00232  -0.00384   0.00065
  91  C 3   dxy     -0.00023   0.00008   0.00229  -0.00072  -0.00056   0.00165
  92  C 3   dyy     -0.00161   0.00039   0.00159  -0.00384   0.00088  -0.00168
  93  C 3   dxz      0.00140  -0.00070   0.00221  -0.00295   0.00292  -0.00271
  94  C 3   dyz     -0.00101   0.00140  -0.00012   0.00639   0.00106   0.00126
  95  C 3   dzz      0.00600  -0.00034  -0.00297   0.00895   0.00356   0.00111
  96  O 3   s       -0.14612   0.05973   0.10033   0.06321   0.02795   0.00358
  97  O 3   s        0.30994  -0.12938  -0.21876  -0.13562  -0.06020  -0.00982
  98  O 3   px      -0.01413   0.00322   0.00201  -0.00888   0.04107  -0.04697
  99  O 3   py       0.08451  -0.02325  -0.02524   0.03003   0.02959   0.00156
 100  O 3   pz      -0.04742   0.01256  -0.00325   0.01831  -0.00561   0.01283
 101  O 3   s        0.35865  -0.14486  -0.26368  -0.19275  -0.09655  -0.00771
 102  O 3   px      -0.01012   0.00342   0.00211  -0.00265   0.01763  -0.02553
 103  O 3   py       0.05125  -0.01132  -0.01776   0.00494   0.00901   0.00382
 104  O 3   pz      -0.03117   0.00720   0.00302   0.01340   0.00078   0.00888
 105  O 3   s       -0.03294   0.02326   0.02264   0.01657   0.00786  -0.00964
 106  O 3   px       0.00239   0.00030   0.00046   0.00020  -0.00004   0.00634
 107  O 3   py      -0.01868   0.00355   0.00549   0.00482   0.00632  -0.00048
 108  O 3   pz       0.00790  -0.00154   0.00331  -0.00231  -0.00328  -0.00080
 109  O 3   dxx     -0.01115   0.00292   0.00521   0.00420   0.00085   0.00133
 110  O 3   dxy     -0.00325   0.00096   0.00045  -0.00120   0.00375  -0.00456
 111  O 3   dyy      0.00522  -0.00002   0.00055   0.00739   0.00412   0.00008
 112  O 3   dxz      0.00104   0.00015   0.00001   0.00030  -0.00204   0.00135
 113  O 3   dyz     -0.00904   0.00170   0.00056   0.00041  -0.00124   0.00098
 114  O 3   dzz     -0.00522   0.00199   0.00570   0.00073   0.00116  -0.00183
 115  C 4   s       -0.02138  -0.07561  -0.00399  -0.08710   0.10354   0.02764
 116  C 4   s        0.03997   0.15069   0.00785   0.18341  -0.22890  -0.06488
 117  C 4   px       0.06960   0.03601   0.03030   0.16031   0.02727   0.19254
 118  C 4   py       0.00345   0.16007  -0.05283  -0.05414  -0.02410  -0.15851
 119  C 4   pz      -0.04826  -0.08418  -0.02330  -0.05649   0.05017  -0.05139
 120  C 4   s        0.04512   0.10579   0.00827   0.17653  -0.23282  -0.05188
 121  C 4   px       0.00803   0.01781   0.00034   0.04506   0.00309   0.05851
 122  C 4   py      -0.02086   0.01992   0.00380   0.02623   0.00189  -0.02734
 123  C 4   pz       0.00794  -0.01444  -0.01390  -0.03276   0.02474  -0.02515
 124  C 4   s       -0.01063  -0.14759   0.12162   0.17459   0.02733  -0.14632
 125  C 4   px       0.00871   0.01745   0.01287   0.03065   0.04103   0.01497
 126  C 4   py      -0.00853  -0.02520  -0.00125   0.01590  -0.07440  -0.06103
 127  C 4   pz       0.00246   0.00303  -0.00265  -0.02279   0.02254   0.01536
 128  C 4   dxx      0.00223  -0.00827   0.00188   0.00135   0.01110  -0.00322
 129  C 4   dxy     -0.00790  -0.00778   0.00144  -0.00338   0.00424   0.00652
 130  C 4   dyy      0.00252   0.00851  -0.00649  -0.01088   0.00421   0.00573
 131  C 4   dxz      0.00063   0.00444  -0.00418  -0.00265  -0.00094  -0.00087
 132  C 4   dyz      0.00366  -0.00038   0.00265   0.00378  -0.00148  -0.00135
 133  C 4   dzz     -0.00293  -0.00848   0.00274  -0.00757   0.00816   0.00552
 134  O 4   s        0.04085   0.05845  -0.00632   0.03686  -0.06519  -0.03813
 135  O 4   s       -0.08875  -0.13211   0.01436  -0.08568   0.14657   0.08348
 136  O 4   px      -0.00214  -0.01190   0.00284   0.06024  -0.09371   0.00791
 137  O 4   py      -0.01697   0.01563  -0.00904  -0.00688  -0.07480  -0.17765
 138  O 4   pz       0.00812   0.00235  -0.00542  -0.02676   0.11775   0.07289
 139  O 4   s       -0.11093  -0.14177   0.02062  -0.09469   0.22914   0.15471
 140  O 4   px      -0.00246  -0.00041   0.00242   0.03467  -0.04306   0.01586
 141  O 4   py      -0.00932   0.00944  -0.00222  -0.00174  -0.03136  -0.08866
 142  O 4   pz       0.00479  -0.00377  -0.00251  -0.01685   0.05333   0.02856
 143  O 4   s        0.00939   0.00714   0.00401  -0.00433   0.00892   0.00694
 144  O 4   px       0.00190  -0.00461   0.00066  -0.00084  -0.01253  -0.01114
 145  O 4   py      -0.00109  -0.00603  -0.00027  -0.00185   0.00248  -0.00245
 146  O 4   pz      -0.00331   0.00285  -0.00106   0.00199   0.00221   0.01124
 147  O 4   dxx      0.00289   0.00031   0.00007   0.00509  -0.00321   0.00399
 148  O 4   dxy     -0.00186   0.00098   0.00030   0.00237  -0.00345  -0.00348
 149  O 4   dyy      0.00170   0.00401  -0.00178  -0.00210  -0.00404  -0.01148
 150  O 4   dxz     -0.00037  -0.00046  -0.00061  -0.00478   0.00665  -0.00070
 151  O 4   dyz      0.00093  -0.00251   0.00053  -0.00050   0.00631   0.00893
 152  O 4   dzz      0.00142   0.00146   0.00073   0.00134  -0.00539  -0.00171
 153  C 5   s       -0.01848  -0.17085   0.05561   0.06585  -0.02805  -0.00207
 154  C 5   s        0.03497   0.32394  -0.10702  -0.12766   0.05439   0.00176
 155  C 5   px       0.01344   0.04733  -0.00123   0.05007   0.01206   0.24809
 156  C 5   py      -0.00927  -0.04675  -0.01088  -0.08939   0.18615   0.18570
 157  C 5   pz      -0.00362   0.00366  -0.00991   0.01637  -0.04577  -0.11498
 158  C 5   s        0.03771   0.31073  -0.12247  -0.18010   0.07359   0.00124
 159  C 5   px       0.00585   0.01071   0.00035   0.01978   0.00609   0.10957
 160  C 5   py      -0.00419  -0.00418  -0.00217  -0.01876   0.07249   0.08737
 161  C 5   pz      -0.00349  -0.00501   0.00000   0.00634  -0.01682  -0.05101
 162  C 5   s        0.01972   0.15619  -0.07592  -0.09981   0.12772   0.14364
 163  C 5   px      -0.00206   0.00655  -0.00815  -0.00747  -0.00105   0.03163
 164  C 5   py      -0.00396  -0.03958   0.01890   0.01594  -0.01536  -0.01694
 165  C 5   pz       0.00166   0.00861   0.00072  -0.00077   0.00049   0.00161
 166  C 5   dxx      0.00047   0.00251  -0.00179  -0.00514   0.00793  -0.00126
 167  C 5   dxy     -0.00104  -0.00040  -0.00192  -0.00616   0.00514   0.00591
 168  C 5   dyy     -0.00011  -0.00247   0.00319   0.00938  -0.01272  -0.00803
 169  C 5   dxz      0.00021   0.00235  -0.00155  -0.00014  -0.00093  -0.00490
 170  C 5   dyz      0.00061  -0.00057   0.00054  -0.00130   0.00343   0.00597
 171  C 5   dzz     -0.00042  -0.00107  -0.00015  -0.00236   0.00583   0.01248
 172  H 1   s        0.01537   0.11467  -0.03205  -0.05577   0.07265   0.15227
 173  H 1   s       -0.00140  -0.00011   0.00393  -0.01202   0.03668   0.08253
 174  H 2   s        0.01181   0.11476  -0.04578  -0.05475   0.06817   0.10064
 175  H 2   s        0.00607   0.00539  -0.00687  -0.01791   0.03193   0.05041
 176  H 3   s        0.00551   0.08728  -0.03924  -0.08574   0.04689  -0.11475
 177  H 3   s        0.00231   0.00874  -0.00666  -0.03420   0.02784  -0.08732
 178  H 4   s        0.02279   0.00982   0.10813  -0.08109  -0.07104   0.03069
 179  H 4   s       -0.00227  -0.00004   0.01368  -0.02523  -0.03457   0.01394
 180  H 5   s        0.03170   0.00202   0.09393  -0.07985  -0.00416  -0.03521
 181  H 5   s       -0.00011  -0.00005   0.00538  -0.02425  -0.00490  -0.02044
 182  H 6   s        0.02258   0.01297   0.11363  -0.06736   0.00584  -0.00634
 183  H 6   s        0.00380   0.00084   0.00894  -0.02003   0.00576  -0.00437
                        19        20        21        22        23        24
 eigenvalues:         -0.191    -0.148    -0.145    -0.131    -0.115    -0.098
   1  C 1   s       -0.01588  -0.02819  -0.05436   0.05730   0.03437   0.01069
   2  C 1   s        0.03304   0.06413   0.12043  -0.13418  -0.08235  -0.03114
   3  C 1   px      -0.03620  -0.01898  -0.01766  -0.04854  -0.09612  -0.18247
   4  C 1   py      -0.00958   0.01321   0.03497  -0.09160  -0.03773  -0.20823
   5  C 1   pz       0.01328  -0.00771   0.05741  -0.04686   0.04344   0.02861
   6  C 1   s        0.04876   0.06258   0.14784  -0.12962  -0.08054  -0.02012
   7  C 1   px      -0.02736  -0.00566  -0.03738   0.00381  -0.03087  -0.05169
   8  C 1   py       0.00809  -0.00071   0.01331  -0.01685   0.00466  -0.05359
   9  C 1   pz      -0.00365   0.00070   0.00909  -0.01532   0.01762   0.01462
  10  C 1   s       -0.12485  -0.04081   0.03942   0.06753  -0.08720  -0.03389
  11  C 1   px       0.02330   0.00636  -0.01245  -0.01275   0.01290  -0.00818
  12  C 1   py       0.01871  -0.00246  -0.00180  -0.00966   0.02637   0.00937
  13  C 1   pz       0.00041  -0.00940  -0.00247  -0.00264  -0.00449  -0.00859
  14  C 1   dxx     -0.00147  -0.00287  -0.00393   0.00510   0.00580   0.00326
  15  C 1   dxy     -0.00163  -0.00170   0.00113  -0.00109  -0.00005  -0.00429
  16  C 1   dyy     -0.00078  -0.00222  -0.00283   0.00086   0.00060  -0.00061
  17  C 1   dxz     -0.00121  -0.00055  -0.00201   0.00020  -0.00090  -0.00008
  18  C 1   dyz      0.00051  -0.00311  -0.00215   0.00103   0.00113   0.00103
  19  C 1   dzz     -0.00184  -0.00216  -0.00754   0.00877   0.00270   0.00352
  20  O 1   s        0.01130   0.02132   0.03246  -0.04443  -0.03253  -0.04955
  21  O 1   s       -0.02394  -0.04787  -0.06956   0.09453   0.07055   0.10382
  22  O 1   px      -0.03224  -0.03040  -0.03032   0.01136  -0.01596  -0.05824
  23  O 1   py      -0.00500  -0.06993  -0.10628   0.18355   0.15203   0.27989
  24  O 1   pz       0.01418   0.00085   0.07317  -0.11156  -0.01531  -0.10308
  25  O 1   s       -0.04661  -0.07470  -0.13087   0.17620   0.12477   0.21034
  26  O 1   px      -0.01371  -0.01562  -0.01082  -0.00035  -0.00940  -0.04090
  27  O 1   py       0.00190  -0.03347  -0.04401   0.08112   0.07183   0.12511
  28  O 1   pz       0.00816  -0.00429   0.03682  -0.05813  -0.00411  -0.04937
  29  O 1   s        0.00080  -0.01312  -0.00793   0.02217   0.00967   0.03092
  30  O 1   px      -0.00290  -0.00030  -0.00667   0.00236  -0.00360  -0.00565
  31  O 1   py      -0.00356  -0.00449  -0.01168   0.02614   0.02454   0.04016
  32  O 1   pz      -0.00193   0.00650   0.00348  -0.01220  -0.00477  -0.01123
  33  O 1   dxx      0.00182   0.00024   0.00011   0.00076   0.00115   0.00256
  34  O 1   dxy      0.00131   0.00243   0.00217  -0.00136   0.00078   0.00301
  35  O 1   dyy      0.00058   0.00361   0.00558  -0.00942  -0.00890  -0.01305
  36  O 1   dxz     -0.00108   0.00029  -0.00148   0.00149  -0.00108  -0.00102
  37  O 1   dyz     -0.00081  -0.00048  -0.00520   0.00735   0.00112   0.00553
  38  O 1   dzz      0.00105  -0.00034   0.00148  -0.00130   0.00086  -0.00132
  39  O 2   s        0.00840   0.01212   0.03282  -0.03565  -0.02378  -0.00664
  40  O 2   s       -0.01995  -0.02796  -0.07194   0.07782   0.05094   0.01356
  41  O 2   px      -0.02216  -0.02934  -0.08258   0.07247   0.02797  -0.06234
  42  O 2   py      -0.00214   0.00731   0.05322  -0.09008  -0.05427  -0.11860
  43  O 2   pz      -0.00065  -0.01354  -0.02593   0.04813   0.08077   0.03689
  44  O 2   s       -0.02249  -0.04064  -0.11581   0.13096   0.09459   0.02704
  45  O 2   px      -0.01370  -0.01548  -0.03872   0.03124   0.00771  -0.03602
  46  O 2   py      -0.00066   0.00069   0.02579  -0.04310  -0.02352  -0.06210
  47  O 2   pz      -0.00287  -0.00569  -0.01018   0.02064   0.03751   0.01719
  48  O 2   s        0.02259  -0.01455   0.01358   0.00768   0.01477   0.00282
  49  O 2   px      -0.00739   0.00178  -0.01730   0.01237   0.01017  -0.00285
  50  O 2   py       0.00127   0.00265   0.00442  -0.00205  -0.00245  -0.01022
  51  O 2   pz      -0.00328  -0.00071  -0.01226   0.00508   0.00665   0.00383
  52  O 2   dxx      0.00171   0.00160   0.00492  -0.00269   0.00070   0.00631
  53  O 2   dxy     -0.00046  -0.00051  -0.00382   0.00471   0.00158   0.00312
  54  O 2   dyy     -0.00033   0.00003   0.00254  -0.00426  -0.00231  -0.00630
  55  O 2   dxz      0.00092   0.00124   0.00230  -0.00240  -0.00287   0.00132
  56  O 2   dyz      0.00016  -0.00061  -0.00207   0.00359   0.00340   0.00553
  57  O 2   dzz     -0.00053  -0.00013  -0.00011  -0.00066  -0.00398  -0.00195
  58  C 2   s        0.03740   0.05153   0.02290  -0.01220  -0.02394   0.00360
  59  C 2   s       -0.07958  -0.11753  -0.04886   0.02396   0.05105  -0.01289
  60  C 2   px       0.08803   0.04064  -0.03311   0.04054  -0.05679   0.15286
  61  C 2   py       0.01443   0.09286   0.04305   0.01055   0.07520   0.03169
  62  C 2   pz       0.05601   0.08847   0.19665  -0.01849   0.09171   0.14376
  63  C 2   s       -0.08968  -0.11495  -0.04058   0.05246   0.07449   0.03110
  64  C 2   px       0.02981   0.01173  -0.02028   0.01022  -0.01635   0.06122
  65  C 2   py      -0.01349   0.04823  -0.01978   0.01365   0.01691   0.01362
  66  C 2   pz       0.01283   0.01191   0.06576  -0.00335   0.03360   0.05406
  67  C 2   s       -0.07695   0.13815  -0.55645   0.14886   0.24759   0.14509
  68  C 2   px       0.06390  -0.01399   0.04378  -0.06335   0.03848   0.06587
  69  C 2   py      -0.01015  -0.00953  -0.03361  -0.02240   0.02969   0.06419
  70  C 2   pz       0.05644   0.06753   0.06477   0.02254   0.02759   0.02304
  71  C 2   dxx     -0.00192   0.00370   0.00642  -0.00221  -0.00266   0.00310
  72  C 2   dxy      0.00066  -0.00083   0.00467  -0.00045  -0.00187   0.00233
  73  C 2   dyy      0.00697   0.00592   0.00048  -0.00514  -0.00047   0.00340
  74  C 2   dxz     -0.00125   0.00216  -0.00170  -0.00682   0.00314   0.00331
  75  C 2   dyz      0.00223  -0.00806   0.00062  -0.00682  -0.00137   0.00652
  76  C 2   dzz      0.00324  -0.00169  -0.00036   0.00450  -0.00086  -0.00467
  77  C 3   s       -0.01843  -0.00144  -0.00820  -0.00426  -0.00235   0.00729
  78  C 3   s        0.03814   0.00028   0.01343   0.00929   0.00596  -0.01665
  79  C 3   px       0.03266  -0.01362  -0.12200   0.18561  -0.11770  -0.04821
  80  C 3   py      -0.02378   0.21603  -0.01030   0.23515   0.09093  -0.21208
  81  C 3   pz      -0.10702  -0.20949  -0.20666  -0.01994  -0.07938  -0.10157
  82  C 3   s        0.04546  -0.01351   0.02394   0.00427  -0.00624  -0.02678
  83  C 3   px       0.01983  -0.01913  -0.05136   0.08347  -0.06015  -0.01000
  84  C 3   py      -0.01363   0.09759   0.00316   0.10079   0.04307  -0.09784
  85  C 3   pz      -0.04836  -0.09049  -0.09157  -0.00894  -0.04486  -0.05236
  86  C 3   s        0.12582   0.03982   0.29406  -0.02286  -0.06040   0.00350
  87  C 3   px      -0.00543  -0.00539  -0.01711   0.02728  -0.02889  -0.03031
  88  C 3   py       0.00649   0.03822   0.02154   0.04063   0.01135  -0.05124
  89  C 3   pz       0.01695  -0.02035   0.04818  -0.01286  -0.03584  -0.01106
  90  C 3   dxx      0.00209  -0.00105   0.00771  -0.01134   0.00208   0.00976
  91  C 3   dxy      0.00092   0.00943   0.00734   0.00189   0.00826  -0.00329
  92  C 3   dyy      0.00498   0.00598   0.00172   0.00556  -0.00204   0.00159
  93  C 3   dxz      0.00234  -0.00276   0.00187  -0.00638  -0.00011   0.00795
  94  C 3   dyz     -0.00311  -0.00916  -0.00188  -0.01013  -0.00052   0.00563
  95  C 3   dzz     -0.00581  -0.00443  -0.00695   0.00417   0.00150  -0.00843
  96  O 3   s       -0.01938  -0.05352   0.00102   0.00037   0.00036   0.01753
  97  O 3   s        0.04305   0.11646   0.00149  -0.00024   0.00013  -0.03938
  98  O 3   px       0.02690   0.02378  -0.02607   0.01348  -0.01516   0.06181
  99  O 3   py      -0.01959  -0.06110   0.02586   0.01588   0.02769   0.04893
 100  O 3   pz       0.01900   0.08261   0.06136   0.01583   0.04587   0.01318
 101  O 3   s        0.06146   0.19292  -0.01890  -0.00565  -0.00713  -0.06130
 102  O 3   px       0.01473   0.01019  -0.01467   0.00870  -0.00748   0.03665
 103  O 3   py      -0.00916  -0.01696   0.00640   0.00910   0.01244   0.01893
 104  O 3   pz       0.00914   0.03601   0.03701   0.01062   0.02892   0.00874
 105  O 3   s       -0.00270   0.01545   0.01663  -0.00048  -0.02413  -0.02966
 106  O 3   px      -0.00702  -0.00201   0.00034  -0.00102  -0.00225  -0.00542
 107  O 3   py      -0.00525  -0.00552  -0.00005   0.01071  -0.00418  -0.00649
 108  O 3   pz      -0.00020  -0.00526  -0.00238  -0.00969  -0.00460   0.00641
 109  O 3   dxx     -0.00132  -0.00200   0.00252   0.00016   0.00079   0.00000
 110  O 3   dxy      0.00252   0.00189  -0.00240   0.00077  -0.00102   0.00513
 111  O 3   dyy     -0.00155  -0.00297   0.00417   0.00190   0.00362   0.00377
 112  O 3   dxz     -0.00137  -0.00129  -0.00015  -0.00090   0.00052  -0.00200
 113  O 3   dyz      0.00228   0.00480   0.00487   0.00000   0.00215   0.00172
 114  O 3   dzz     -0.00101  -0.00679  -0.00351  -0.00160  -0.00354  -0.00070
 115  C 4   s       -0.01469  -0.00808  -0.01150  -0.00977   0.01826  -0.00453
 116  C 4   s        0.03046   0.01919   0.02601   0.03003  -0.05017   0.01133
 117  C 4   px       0.01944  -0.01394   0.04124  -0.05081   0.17682  -0.03733
 118  C 4   py       0.16016   0.11514  -0.22122  -0.11897   0.09171   0.03439
 119  C 4   pz       0.14612  -0.09539   0.14099   0.13085  -0.06183   0.04627
 120  C 4   s        0.03276  -0.01892   0.08393   0.01968  -0.03648  -0.00415
 121  C 4   px       0.02794   0.00258   0.01917  -0.03184   0.06585  -0.00693
 122  C 4   py       0.04690   0.01692  -0.03035  -0.01804   0.02730   0.01843
 123  C 4   pz       0.05405  -0.02172   0.04441   0.05139  -0.01128   0.02371
 124  C 4   s        0.11767  -0.04861   0.10427  -0.16881   0.15171  -0.14164
 125  C 4   px      -0.00019  -0.03509   0.07025  -0.03402   0.00535  -0.04111
 126  C 4   py       0.03347   0.04497  -0.05083   0.03077   0.03389  -0.00176
 127  C 4   pz      -0.01221  -0.00385  -0.00591   0.00764  -0.02799   0.03312
 128  C 4   dxx     -0.00715   0.00004   0.00100   0.00023   0.00482   0.00324
 129  C 4   dxy      0.00512   0.00115   0.00357   0.00437  -0.01573   0.00223
 130  C 4   dyy      0.00359  -0.00232  -0.00349  -0.00402   0.00144  -0.00594
 131  C 4   dxz     -0.00093   0.00495  -0.00074  -0.00632   0.00662   0.00191
 132  C 4   dyz      0.00385  -0.00759  -0.00431  -0.00368   0.01171  -0.00815
 133  C 4   dzz     -0.00227  -0.00036  -0.00063   0.00203  -0.00116  -0.00042
 134  O 4   s        0.00532  -0.01732   0.03794   0.03358  -0.03383   0.00500
 135  O 4   s       -0.01117   0.03414  -0.07888  -0.06926   0.06688  -0.00905
 136  O 4   px       0.04227  -0.10043   0.23785   0.18604  -0.16474   0.02989
 137  O 4   py       0.08920  -0.02628   0.01860   0.09609  -0.10942   0.06790
 138  O 4   pz       0.07780   0.03329  -0.09967  -0.10586   0.22929  -0.00969
 139  O 4   s       -0.02020   0.08144  -0.16581  -0.15080   0.16208  -0.02673
 140  O 4   px       0.02271  -0.04482   0.11639   0.08862  -0.07462   0.01359
 141  O 4   py       0.04690  -0.00606  -0.00794   0.03721  -0.04222   0.03761
 142  O 4   pz       0.04270   0.00620  -0.03915  -0.04130   0.11059  -0.00387
 143  O 4   s        0.00293   0.01316  -0.01052  -0.03229   0.01244   0.02176
 144  O 4   px       0.00223  -0.01584   0.02938   0.01995  -0.03284   0.01206
 145  O 4   py       0.00082  -0.00003  -0.00027   0.00528  -0.01365   0.00562
 146  O 4   pz      -0.00191   0.00616  -0.01919  -0.00941   0.02978  -0.01270
 147  O 4   dxx      0.00241  -0.00526   0.01134   0.00611  -0.00081   0.00019
 148  O 4   dxy      0.00604  -0.00215   0.00351   0.00450  -0.00357   0.00270
 149  O 4   dyy      0.00707  -0.00076  -0.00257   0.00161  -0.00090   0.00258
 150  O 4   dxz      0.00185   0.00275  -0.00735  -0.00504   0.00636   0.00029
 151  O 4   dyz     -0.00033  -0.00120   0.00108  -0.00231   0.00656  -0.00236
 152  O 4   dzz     -0.00698  -0.00017   0.00150   0.00082  -0.00762  -0.00080
 153  C 5   s        0.01103   0.00933  -0.00299   0.00441   0.00016   0.00456
 154  C 5   s       -0.02020  -0.02121   0.00635  -0.00976  -0.00149  -0.01104
 155  C 5   px       0.25511   0.06583  -0.10317  -0.04102  -0.19411   0.01480
 156  C 5   py      -0.02567  -0.17310   0.18927   0.10236  -0.01582  -0.06850
 157  C 5   pz       0.26867  -0.17801  -0.00699   0.02161   0.18872  -0.16159
 158  C 5   s       -0.02561  -0.00010  -0.02769  -0.02831  -0.00833  -0.01174
 159  C 5   px       0.11254   0.02866  -0.04968  -0.01249  -0.08332   0.01326
 160  C 5   py      -0.01173  -0.09869   0.10335   0.05323  -0.01051  -0.03767
 161  C 5   pz       0.13150  -0.08827  -0.01335   0.01171   0.09869  -0.08959
 162  C 5   s       -0.06611  -0.06700   0.07654   0.00013  -0.17204   0.04918
 163  C 5   px       0.03355   0.01629  -0.02759  -0.00277  -0.05360   0.01580
 164  C 5   py       0.00809  -0.00532   0.00456   0.01210   0.04822  -0.02640
 165  C 5   pz       0.02139  -0.02231   0.00733   0.00382   0.02674  -0.03656
 166  C 5   dxx     -0.00967  -0.00759   0.00934   0.00347   0.00919  -0.00213
 167  C 5   dxy      0.00579  -0.00419   0.00085   0.00225  -0.00807  -0.00107
 168  C 5   dyy      0.00514   0.00423  -0.00739  -0.00306  -0.00026  -0.00075
 169  C 5   dxz      0.01321  -0.01201   0.00299   0.00162   0.01186  -0.00942
 170  C 5   dyz      0.00112  -0.00494   0.00176   0.00030   0.00362  -0.00699
 171  C 5   dzz      0.00341   0.00120   0.00188   0.00117  -0.01104   0.00227
 172  H 1   s       -0.08121   0.09538  -0.00054  -0.00299  -0.16955   0.08818
 173  H 1   s       -0.04714   0.07224   0.00556   0.01135  -0.12424   0.06458
 174  H 2   s        0.17559  -0.12272   0.03098   0.02704   0.01163  -0.09226
 175  H 2   s        0.10315  -0.08849   0.03396   0.02200   0.01928  -0.07052
 176  H 3   s       -0.18342  -0.07139   0.10120   0.03529   0.13113  -0.02015
 177  H 3   s       -0.13214  -0.06006   0.08525   0.03516   0.13515  -0.01636
 178  H 4   s        0.02640   0.00647   0.12331  -0.15359   0.06737   0.10164
 179  H 4   s        0.01454  -0.00011   0.09709  -0.12467   0.05114   0.09932
 180  H 5   s        0.04155  -0.09408  -0.02760  -0.04086  -0.08733   0.08647
 181  H 5   s        0.02231  -0.04965  -0.01623  -0.03231  -0.06474   0.06684
 182  H 6   s        0.04486   0.17955   0.04790   0.17008   0.04798  -0.09080
 183  H 6   s        0.02670   0.13622   0.03235   0.13602   0.03110  -0.07640
                        25        26        27        28        29        30
 eigenvalues:         -0.070    -0.067    -0.051    -0.040     0.002     0.047
   1  C 1   s        0.01764   0.01016  -0.00490   0.00557   0.01658   0.00461
   2  C 1   s       -0.04090  -0.02716   0.00959  -0.01105  -0.03714  -0.01298
   3  C 1   px      -0.05504  -0.20374  -0.15600  -0.02326   0.01911   0.02172
   4  C 1   py       0.18088   0.16394   0.08094   0.06484   0.08424  -0.00391
   5  C 1   pz       0.02568  -0.21008   0.24042   0.14232  -0.03661  -0.00525
   6  C 1   s       -0.05166  -0.04046   0.01603  -0.01236  -0.03867  -0.00975
   7  C 1   px      -0.02507  -0.07595  -0.07725  -0.00649   0.01751   0.01819
   8  C 1   py       0.04783   0.04351   0.05511   0.02607   0.03122   0.01149
   9  C 1   pz       0.02434  -0.07296   0.09598   0.06361  -0.00480  -0.00018
  10  C 1   s        0.00363  -0.00252  -0.01151   0.18830   0.13821  -0.01095
  11  C 1   px       0.01480  -0.00675  -0.02854  -0.03641  -0.00448   0.02749
  12  C 1   py      -0.01085  -0.03112   0.02856  -0.02248  -0.03919   0.02996
  13  C 1   pz       0.02932  -0.00172   0.04846   0.00403   0.00825   0.00095
  14  C 1   dxx     -0.00223  -0.00813  -0.00893  -0.00318  -0.00034   0.01213
  15  C 1   dxy      0.00266  -0.00001  -0.00428   0.00098   0.01399   0.00546
  16  C 1   dyy      0.00514   0.00939   0.00708   0.00342   0.00821  -0.01006
  17  C 1   dxz     -0.00330  -0.00563   0.00772   0.00653  -0.00781  -0.00097
  18  C 1   dyz      0.00197  -0.00387   0.00961   0.00741   0.00152   0.00167
  19  C 1   dzz     -0.00133  -0.00029   0.00088   0.00160  -0.00480  -0.00124
  20  O 1   s        0.01703   0.02678   0.00141   0.00067   0.00420   0.00232
  21  O 1   s       -0.03442  -0.05725  -0.00198  -0.00130  -0.00559  -0.00505
  22  O 1   px      -0.06670  -0.21054  -0.17587  -0.03741   0.07154   0.11952
  23  O 1   py      -0.10360  -0.19026   0.11519   0.05067  -0.09800   0.00551
  24  O 1   pz       0.10871  -0.06562   0.25467   0.16769   0.04380  -0.02100
  25  O 1   s       -0.07832  -0.11662  -0.01610  -0.00336  -0.02889  -0.01604
  26  O 1   px      -0.03374  -0.11532  -0.10403  -0.02527   0.04766   0.07916
  27  O 1   py      -0.04644  -0.09105   0.07233   0.03215  -0.04639   0.00423
  28  O 1   pz       0.05941  -0.04100   0.15418   0.10026   0.02048  -0.01553
  29  O 1   s        0.01431  -0.01172   0.00550  -0.00154  -0.00795  -0.00832
  30  O 1   px      -0.01013  -0.02352  -0.02741  -0.00528   0.01035   0.01086
  31  O 1   py      -0.02214  -0.03736   0.01034   0.00713  -0.01806  -0.00060
  32  O 1   pz       0.01652  -0.00279   0.02718   0.02744   0.00989  -0.00752
  33  O 1   dxx      0.00121   0.00387   0.00467   0.00109  -0.00139  -0.00048
  34  O 1   dxy      0.00434   0.01236   0.00846   0.00196  -0.00278  -0.00473
  35  O 1   dyy      0.00152   0.00636  -0.01121  -0.00583   0.00255   0.00193
  36  O 1   dxz     -0.00203  -0.00099  -0.00667  -0.00263   0.00063   0.00190
  37  O 1   dyz     -0.00574   0.00437  -0.01360  -0.00888  -0.00091   0.00071
  38  O 1   dzz      0.00207  -0.00481   0.00817   0.00492   0.00039   0.00020
  39  O 2   s       -0.02794  -0.06793  -0.00083   0.00325  -0.01005   0.00190
  40  O 2   s        0.05980   0.13957   0.00017  -0.00597   0.02170  -0.00430
  41  O 2   px       0.11080   0.25609  -0.10576  -0.04992   0.12752   0.05795
  42  O 2   py       0.00002  -0.19110   0.05119   0.07758  -0.00155   0.06356
  43  O 2   pz       0.13932   0.18710   0.18068   0.08741   0.05461  -0.02253
  44  O 2   s        0.11128   0.30073   0.01353  -0.01741   0.03824  -0.01030
  45  O 2   px       0.05145   0.10976  -0.06530  -0.02482   0.07246   0.03811
  46  O 2   py       0.00836  -0.08655   0.03027   0.04238   0.00269   0.03731
  47  O 2   pz       0.06877   0.07827   0.10180   0.05454   0.02862  -0.01239
  48  O 2   s        0.02991   0.01265   0.00565  -0.01893   0.00420  -0.01125
  49  O 2   px       0.01463   0.05110  -0.00594  -0.00663   0.01338   0.00628
  50  O 2   py      -0.00983  -0.01668   0.00471   0.00728  -0.00156   0.01011
  51  O 2   pz       0.01158   0.03547   0.00361   0.01400   0.00466  -0.01238
  52  O 2   dxx     -0.00319  -0.00898   0.00806   0.00327  -0.00354  -0.00272
  53  O 2   dxy     -0.00081   0.00629  -0.00659  -0.00435   0.00151   0.00041
  54  O 2   dyy      0.00257  -0.00687   0.00292   0.00427   0.00217   0.00234
  55  O 2   dxz     -0.00604  -0.00674  -0.00381  -0.00282  -0.00297  -0.00103
  56  O 2   dyz      0.00176   0.00553   0.00463   0.00114  -0.00032  -0.00214
  57  O 2   dzz     -0.00529  -0.00424  -0.01239  -0.00629   0.00042   0.00093
  58  C 2   s        0.01473   0.00326   0.00094  -0.02135  -0.04492  -0.01997
  59  C 2   s       -0.03436  -0.00912  -0.00246   0.04782   0.09796   0.03741
  60  C 2   px      -0.06277   0.05364   0.01391   0.02023   0.03615  -0.12859
  61  C 2   py       0.03590   0.05334  -0.00425  -0.06321  -0.25720   0.18087
  62  C 2   pz       0.08348  -0.04905  -0.02051  -0.14053   0.20758   0.07284
  63  C 2   s       -0.04137  -0.01084   0.00018   0.06229   0.20587   0.13916
  64  C 2   px      -0.03135   0.01813   0.00597  -0.00083   0.00521  -0.08687
  65  C 2   py       0.01452   0.03769  -0.01369  -0.02214  -0.12295   0.11395
  66  C 2   pz       0.02404  -0.02168   0.01562  -0.05110   0.08458   0.05841
  67  C 2   s        0.22157   0.22275  -0.03954  -0.03944  -0.41357   0.83652
  68  C 2   px      -0.15207   0.04123   0.00106  -0.05273  -0.01833  -0.19493
  69  C 2   py      -0.00230   0.04880  -0.00627  -0.08458  -0.00090   0.05146
  70  C 2   pz      -0.06545   0.00380   0.11284  -0.13973   0.01660   0.22536
  71  C 2   dxx     -0.00454  -0.00052  -0.00272  -0.01267  -0.00981   0.00369
  72  C 2   dxy     -0.00586   0.00745   0.00146   0.00141  -0.00269  -0.00412
  73  C 2   dyy      0.00460   0.00301   0.00155  -0.00104   0.01293  -0.00617
  74  C 2   dxz     -0.01270   0.00302   0.00502   0.00770  -0.00087  -0.00441
  75  C 2   dyz      0.00820  -0.00030   0.00146  -0.00128  -0.01347   0.00708
  76  C 2   dzz      0.00180  -0.00277   0.00192   0.00930  -0.00623  -0.00348
  77  C 3   s       -0.00498   0.00539  -0.00603  -0.01255   0.01151   0.00476
  78  C 3   s        0.00970  -0.00976   0.01395   0.03200  -0.02408  -0.01405
  79  C 3   px       0.25800  -0.13513   0.07875  -0.13120   0.00834   0.04235
  80  C 3   py      -0.13043  -0.01514   0.03072   0.10847   0.01875  -0.05378
  81  C 3   pz      -0.06582   0.02895   0.01336   0.16226  -0.12711  -0.04720
  82  C 3   s        0.02028  -0.02869   0.03434   0.03752  -0.05460  -0.00424
  83  C 3   px       0.13076  -0.06273   0.03048  -0.07999   0.00582   0.02606
  84  C 3   py      -0.08695  -0.00261   0.00873   0.07529   0.00924  -0.03249
  85  C 3   pz      -0.04746   0.01835   0.00618   0.08592  -0.08340  -0.02795
  86  C 3   s       -0.09228  -0.09286   0.15164  -0.17810   0.17265   0.21993
  87  C 3   px       0.08139  -0.04878   0.03934  -0.05251   0.00214   0.03360
  88  C 3   py      -0.03457  -0.01697   0.01535   0.03646   0.02970  -0.01387
[...]
    64    1.999380192120e-02
    65   -3.318572167537e-02
    66    1.942581350369e-02
    67   -5.653104512280e+00
    68   -6.120902689323e-02
    69    2.050790905229e+00
    70    4.715772045351e+00
    71   -3.398103285678e-03
    72    4.961136261839e-03
    73   -9.387259980703e-04
    74    8.230993903272e-04
    75   -4.126919430610e-04
    76    4.290102022834e-03
    77   -3.411568626862e-02
    78    8.217655972778e-02
    79   -3.730048470664e-02
    80   -9.985919015092e-03
    81   -8.495892676336e-02
    82    1.341036070666e-01
    83   -3.569951852039e-02
    84   -2.708712899584e-02
    85   -1.321647729200e-01
    86    1.315560031512e+01
    87    6.245155009487e-01
    88    8.711006951509e-01
    89    4.979247243819e+00
    90    5.267674651772e-03
    91    7.318761525808e-03
    92   -9.691799554127e-03
    93    3.787046440510e-03
    94    1.194889073410e-03
    95   -5.557556715138e-03
    96   -2.066829958744e-03
    97    8.137824593349e-03
    98   -2.030636545519e-02
    99   -2.907698240017e-02
   100   -8.376682982997e-02
   101    8.769029184049e-05
   102   -1.113529907438e-02
   103   -1.071415531729e-02
   104   -5.082468535126e-02
   105    1.373675723620e-01
   106   -1.696643699403e-02
   107   -1.849605139388e-01
   108   -2.920428810305e-03
   109    5.959593535570e-04
   110   -9.613867506187e-04
   111    2.752839729436e-03
   112   -5.319067654634e-04
   113    2.795421807331e-04
   114   -2.484794957671e-04
   115   -8.826143023771e-03
   116    7.098469232277e-03
   117    3.048435988062e-02
   118    3.277359848153e-02
   119    3.072122122624e-02
   120    1.414223071167e-01
   121    7.068782882585e-02
   122    9.911669548544e-02
   123    6.434555744056e-02
   124    2.277001732677e+00
   125   -1.256316623929e+00
   126    2.555602022505e+00
   127   -2.542983075330e-01
   128   -4.599881354905e-04
   129    4.532769029217e-04
   130   -6.407599007528e-03
   131    3.962446640158e-03
   132    2.871917280081e-03
   133   -1.965299490169e-03
   134    8.140913432616e-04
   135    8.495948395068e-03
   136   -1.951435062472e-02
   137   -3.498862576844e-02
   138   -4.714664610318e-02
   139   -4.345995902462e-02
   140   -1.526064878049e-02
   141   -3.650613451171e-03
   142   -4.406878930640e-02
   143    3.728164181999e-01
   144    5.770442547481e-02
   145   -1.856719309245e-01
   146   -1.301535405589e-01
   147    3.945433652604e-03
   148    2.437668644622e-03
   149    5.051309173102e-03
   150   -6.321663621254e-04
   151   -1.459304965597e-03
   152   -4.646119877712e-04
   153    1.020992043214e-02
   154   -2.137329674690e-02
   155    3.072973976133e-02
   156   -3.089865270772e-02
   157   -2.967355723951e-02
   158   -8.731148537461e-02
   159    2.344064049886e-03
   160   -3.407379627954e-02
   161   -4.933146394934e-02
   162   -6.822618225277e+00
   163   -7.276015737315e-01
   164    2.289742756805e+00
   165   -1.352331874090e-01
   166   -1.586954062748e-03
   167    1.473373529568e-03
   168   -5.711265636276e-04
   169   -4.574356051051e-03
   170   -3.713903924092e-03
   171   -3.185147377345e-03
   172    9.432330229872e-03
   173    1.399362223681e-01
   174   -3.007490011174e-02
   175    1.136228786578e-01
   176   -3.038220047771e-03
   177    8.015490989726e-02
   178    1.928196793814e-02
   179   -1.030290244127e-01
   180    7.189708905652e-03
   181   -1.204906971464e-01
   182    2.730203959463e-02
   183   -1.343216221192e-01
Sym=X
Ene= 0.254106
Spin=Alpha
Occup=0
     1   -2.269580946537e-02
     2    4.451421089585e-02
     3   -5.019882756610e-02
     4   -4.083120367445e-02
     5   -5.040791397966e-02
     6    1.798847515129e-01
     7    4.803287339032e-02
     8    5.234349593500e-03
     9   -4.780952754247e-02
    10   -4.717682800730e+00
    11    1.933199154892e+00
    12    9.208281446973e-01
    13    6.797854524512e-01
    14   -5.169704932622e-03
    15   -4.454611675769e-04
    16    1.695378246900e-03
    17    2.665387116865e-03
    18    2.729648409492e-03
    19    2.162827710351e-03
    20    1.070342580854e-02
    21   -2.598990222801e-02
    22   -5.850666645997e-03
    23    5.109561240792e-03
    24    2.586180849466e-02
    25   -7.277850191384e-02
    26    4.917067002790e-05
    27    2.672856316621e-02
    28    3.350330833293e-02
    29    2.206148422222e-01
    30   -1.334418337889e-01
    31   -7.189960939211e-02
    32   -1.407183790181e-01
    33   -1.338287822015e-04
    34    2.344927102690e-04
    35    8.656468360837e-04
    36    1.959023116331e-03
    37   -6.162772766876e-04
    38    2.092818329195e-03
    39    8.469202837501e-03
    40   -1.260285951513e-02
    41    4.445325992437e-03
    42    1.502617497765e-02
    43    5.050636553466e-02
    44   -9.019036013508e-02
    45    2.951305494367e-02
    46    1.754917319472e-02
    47    5.304163068707e-02
    48    3.194703834650e-01
    49   -2.821721200070e-01
    50   -8.155963493045e-02
    51   -8.358859415693e-02
    52    4.126533437931e-03
    53    1.877291975868e-03
    54    1.734409083266e-03
    55    1.064570085093e-03
    56   -4.118461515212e-04
    57    2.782461833891e-03
    58   -2.627286419404e-03
    59    5.611172752296e-03
    60   -4.779760210284e-03
    61    9.569876978030e-03
    62    1.367744375562e-02
    63    3.427905074824e-02
    64    4.906599423314e-02
    65    1.198622275754e-02
    66    3.067686402107e-02
    67   -9.057184326965e-01
    68    8.501660771272e-01
    69   -7.685124308980e-01
    70    8.314071808390e-01
    71    1.616051926066e-02
    72   -1.585802457057e-03
    73   -1.429593156103e-02
    74    5.198305327649e-03
    75    7.396912456819e-03
    76   -7.542318057757e-03
    77    2.092601201471e-02
    78   -5.434501448864e-02
    79   -2.897596106086e-02
    80   -2.519822434610e-02
    81   -7.025496697528e-02
    82   -9.942540160523e-02
    83    1.183081886322e-02
    84    4.542583920435e-03
    85   -2.495214351723e-02
    86    2.202280786572e+00
    87    7.376129446534e-01
    88    5.915975153321e-01
    89    3.978643681292e-01
    90    2.488083937882e-03
    91   -3.207604556132e-03
    92    1.964067350548e-03
    93   -1.260698561981e-03
    94   -5.123353166453e-03
    95    2.696709789890e-03
    96   -6.245603119295e-04
    97   -1.493793280853e-03
    98   -2.830495951903e-02
    99    3.282162481326e-03
   100    1.501481350234e-03
   101    1.834349647062e-02
   102   -1.403488064161e-02
   103   -1.098284487170e-02
   104   -4.996686199446e-03
   105   -1.592692610003e-01
   106   -6.333689906502e-02
   107    4.924798647641e-02
   108    6.754143703322e-02
   109    7.648561594040e-05
   110   -1.426193098365e-03
   111   -2.007234626402e-03
   112   -1.554615626195e-03
   113    2.466397661982e-04
   114   -1.969692791393e-04
   115   -8.645380244805e-04
   116    1.124943142245e-02
   117   -1.831814529185e-01
   118   -9.319966725853e-02
   119   -2.893867636245e-01
   120   -4.183265566785e-02
   121   -1.625388748868e-01
   122   -1.206895347836e-01
   123   -2.795526042514e-01
   124    1.065276229772e+01
   125    7.581682584956e-01
   126    2.049577160510e+00
   127   -1.731704229112e+00
   128   -7.411293291040e-03
   129   -5.859039492344e-03
   130    1.495029583404e-02
   131   -1.275519580888e-02
   132   -9.975770830839e-04
   133   -2.830435546383e-03
   134   -3.799767530522e-03
   135    9.122016153243e-03
   136    9.609359124984e-02
   137    7.070335275665e-02
   138    1.991566135420e-01
   139    2.756140101092e-02
   140    1.011595479657e-01
   141    7.109396864389e-02
   142    1.544506132768e-01
   143   -1.512868977056e-01
   144   -1.141177383409e-01
   145    1.155747846634e-02
   146    2.413049068190e-01
   147   -4.342935943669e-03
   148    1.379494519214e-03
   149    3.725103846371e-03
   150   -8.250593337447e-04
   151   -2.120044553857e-03
   152   -7.454110758862e-04
   153   -5.271365467356e-03
   154   -4.800416196617e-04
   155   -7.838617096290e-02
   156   -1.419447589437e-02
   157   -1.983714846077e-02
   158    9.263105813704e-02
   159   -1.184378125446e-01
   160   -1.532951806902e-02
   161   -4.229161191730e-02
   162   -6.924539721535e+00
   163    2.030304152217e-01
   164    2.451634118335e+00
   165    2.130812336384e-01
   166   -1.055589638755e-02
   167    1.548888628172e-02
   168   -8.123907609572e-03
   169    8.147278757758e-03
   170   -5.419915758358e-03
   171    1.428304202112e-02
   172   -3.809320882698e-02
   173   -7.805780395024e-02
   174    4.428463604594e-02
   175    3.060100799837e-03
   176   -5.415033515676e-02
   177   -9.491902946872e-02
   178   -2.290915154700e-04
   179   -1.969998791811e-02
   180    1.053518728758e-02
   181   -2.696800501769e-02
   182    2.452200981641e-04
   183   -8.957911858105e-02
Sym=X
Ene= 0.260799
Spin=Alpha
Occup=0
     1   -4.155597196154e-03
     2    1.085724468631e-02
     3    4.084829468877e-03
     4   -3.748288601733e-02
     5   -5.469377027798e-02
     6    4.086701971663e-03
     7    1.481400251726e-02
     8   -4.907078849757e-02
     9    5.658140171076e-02
    10   -3.192187326879e+00
    11    2.809956884160e-01
    12    6.933262018690e-02
    13    7.913133460987e-01
    14   -8.950796387426e-04
    15   -5.138725073843e-04
    16    3.112811714441e-03
    17    1.151033041532e-03
    18    2.628421874504e-03
    19    2.952591863669e-03
    20   -2.456811692360e-03
    21   -6.115839909983e-03
    22   -2.191783337565e-03
    23    1.696438583434e-02
    24    6.199123335004e-03
    25    7.266343328745e-02
    26   -1.316958427734e-02
    27   -5.742944688809e-03
    28    8.465985496012e-03
    29   -2.706378868198e-01
    30    1.356663356551e-01
    31    1.031743269514e-01
    32   -5.045123131962e-03
    33   -3.566302053347e-03
    34   -1.438887408973e-03
    35   -4.774859338917e-03
    36   -2.374191813203e-04
    37    3.363330226322e-04
    38    2.778327815002e-03
    39    9.410782282743e-04
    40   -1.180862416421e-02
    41    2.665148679532e-03
    42    2.448861446197e-02
    43    2.968754766283e-02
    44    1.770030949217e-02
    45    8.891309317168e-03
    46    1.136004889717e-02
    47    3.408410307824e-02
    48   -4.143153590552e-01
    49    9.512140355789e-02
    50   -1.463243553618e-02
    51   -3.344001166566e-02
    52   -4.881016641138e-03
    53   -3.033538000491e-03
    54   -2.233552640999e-03
    55    1.686573472265e-03
    56    3.097468817697e-04
    57    2.059732437029e-04
    58    4.790553538252e-03
    59   -1.035068853787e-02
    60    2.792549867706e-02
    61   -4.166820337154e-03
    62    9.518217442935e-03
    63   -1.641842029237e-02
    64    1.891694803826e-02
    65    5.002149448532e-02
    66   -1.534043876030e-03
    67    5.680992229160e+00
    68    1.876614465006e+00
    69    4.508603959208e+00
    70    9.656977025310e-01
    71    9.457065676306e-03
    72   -2.139149745186e-03
    73   -9.467805129350e-03
    74    6.870936037127e-05
    75   -8.628106984993e-04
    76   -4.670617989728e-03
    77    1.466812287749e-02
    78   -4.291841526199e-02
    79    8.058310100865e-02
    80    4.172362786932e-02
    81   -5.800494679305e-02
    82   -6.802083493261e-02
    83   -3.647146294320e-03
    84    6.474247967519e-03
    85   -2.641280668346e-02
    86    3.226462252710e+00
    87   -8.286459715925e-01
    88   -9.012209251474e-01
    89    1.260471455682e+00
    90   -2.373556621427e-04
    91    7.379608855880e-04
    92   -1.642261108257e-03
    93   -9.989869111551e-04
    94   -2.563512709500e-03
    95   -1.191589482928e-03
    96    1.237855108147e-03
    97   -9.661797197278e-03
    98    6.235657413800e-03
    99    5.308461798598e-03
   100   -2.172955113616e-02
   101    3.821531454540e-02
   102   -3.920219125002e-03
   103    4.655549068135e-02
   104   -1.827040717851e-02
   105    1.511432435401e-01
   106   -8.702410896474e-03
   107   -3.300231598733e-01
   108    2.145214227067e-03
   109   -9.760170979399e-04
   110   -1.059586988861e-03
   111   -1.088486396331e-03
   112    1.295658885219e-03
   113    1.195702492417e-04
   114   -8.631719639954e-04
   115   -3.566170530938e-03
   116   -1.868155929805e-02
   117   -8.501402666634e-02
   118   -1.076331387350e-01
   119   -1.362269476310e-01
   120    1.844156406626e-01
   121   -1.678530594227e-01
   122   -2.541945725080e-01
   123   -1.562363192009e-02
   124   -1.563652237331e+01
   125   -2.756101217376e+00
   126   -4.362432873688e+00
   127    1.675668684581e+00
   128   -7.020706503775e-03
   129   -5.805185724789e-03
   130    1.170348081783e-02
   131    1.293125063011e-03
   132   -2.534326247516e-03
   133   -7.134222586470e-03
   134    1.635931646476e-02
   135   -5.388741297200e-02
   136    1.187838440114e-01
   137    4.907996595830e-02
   138    1.006911460149e-01
   139   -9.075117882898e-02
   140    5.378662604478e-03
   141    1.061776463712e-02
   142    1.328545549789e-01
   143   -6.446264980529e-01
   144    4.238942849659e-01
   145   -4.628527045372e-02
   146    3.477192105047e-02
   147   -5.445285318729e-03
   148   -6.422237072057e-03
   149   -3.946755219506e-03
   150   -3.564300244696e-03
   151    2.517349607903e-03
   152    4.789687591160e-03
   153    8.857086319566e-03
   154   -3.352139629243e-02
   155    5.116214403533e-02
   156   -2.448399936614e-03
   157   -5.281328628605e-02
   158    5.840871608118e-02
   159    7.417051774809e-02
   160   -1.115650257497e-01
   161   -1.278990899711e-01
   162    1.106502126605e+01
   163    7.708393001310e-01
   164   -2.874571425705e+00
   165    1.495179470201e+00
   166   -3.243307660814e-03
   167    9.937053955372e-04
   168    1.069966349171e-03
   169    6.387549756535e-03
   170   -6.831405554894e-03
   171    1.337260891026e-02
   172    3.415055901942e-03
   173   -4.741644159846e-02
   174    4.437307006364e-02
   175    1.319074697012e-01
   176   -1.565443190527e-02
   177   -1.293547568339e-01
   178   -6.121591287521e-03
   179   -1.461485161551e-01
   180    1.585308019932e-02
   181   -7.565190671050e-02
   182    1.665437613957e-02
   183   -4.959068409810e-02
Sym=X
Ene= 0.278492
Spin=Alpha
Occup=0
     1   -1.352531722205e-02
     2   -2.426405465740e-02
     3   -9.985060828516e-04
     4    2.152229074760e-02
     5    2.010826038212e-02
     6    3.953145780237e-01
     7   -6.500991251696e-02
     8    6.911484644622e-02
     9    2.073776702532e-02
    10   -5.117976937516e-01
    11    1.162272975077e+00
    12    1.036656908559e+00
    13    2.101536510132e-01
    14   -4.840434606007e-03
    15    8.148009875525e-04
    16   -4.995651721417e-03
    17   -1.937101164889e-03
    18   -5.156452617870e-03
    19   -2.538300775297e-03
    20    1.585121942879e-02
    21   -5.164785430703e-02
    22   -3.782101846905e-03
    23   -3.663040379852e-02
    24   -6.022293572136e-03
    25   -6.876088911599e-02
    26    2.687399631874e-02
    27    3.483616698955e-02
    28   -2.247554266430e-02
    29   -3.686635413500e-01
    30   -1.909745444538e-01
    31   -1.909128196641e-01
    32   -5.537187013690e-02
    33   -3.220003297854e-03
    34   -7.195402211516e-03
    35   -2.042055425169e-03
    36   -1.894263211918e-03
    37   -1.657296369685e-05
    38    1.557203675187e-03
    39    1.128910811629e-02
    40   -3.257386218369e-02
    41    3.096212189931e-03
    42   -3.578587829762e-02
    43   -3.090461789511e-02
    44   -4.811157001865e-02
    45    4.359211140079e-02
    46   -2.184173496993e-02
    47   -8.711252763953e-03
    48   -1.699040450539e-01
    49   -1.927487101024e-01
    50   -1.499400827146e-01
    51   -1.020004949328e-01
    52   -1.876030697398e-03
    53   -1.821163993945e-03
    54    5.915850881898e-04
    55    2.075190845354e-03
    56   -1.659922762522e-03
    57    1.055632138830e-03
    58    1.179609363991e-02
    59   -1.357801411762e-02
    60   -2.230856563469e-02
    61   -3.518223135038e-02
    62    1.422591434600e-02
    63   -1.221433736600e-01
    64   -2.110726746149e-02
    65   -1.867913785012e-02
    66    4.729810147530e-02
    67   -1.317826522542e+00
    68   -9.162913703040e-01
    69   -1.455615145336e+00
    70    3.350767607236e+00
    71   -2.221365110472e-03
    72   -2.963240952391e-04
    73    1.286806674665e-03
    74   -1.743151898687e-03
    75    1.453266892313e-03
    76    5.841221279350e-03
    77    1.723759210840e-03
    78   -2.166495351074e-02
    79   -3.050253501644e-02
    80   -7.257631752320e-02
    81    5.854646818692e-02
    82    7.660735402716e-02
    83    5.819569565038e-03
    84    1.910754251103e-02
    85    1.577658789605e-01
    86    7.356982995357e+00
    87    4.342968041770e-01
    88    1.593450030767e+00
    89    2.092382426533e+00
    90    1.053345683066e-03
    91   -1.593367915615e-03
    92   -3.745181134486e-03
    93   -3.939213814976e-03
    94   -4.759130817878e-05
    95   -2.893619656895e-03
    96    7.960365271643e-03
    97   -2.710151203029e-02
    98    3.381063614521e-02
    99   -1.279015265911e-02
   100    2.099756462277e-03
   101   -3.272501784738e-03
   102    3.021376431184e-02
   103   -3.129072163153e-02
   104    2.456858968809e-02
   105   -9.009955114075e-02
   106   -1.086694934462e-03
   107    2.957273777914e-01
   108   -2.105473161733e-01
   109   -2.670733130250e-03
   110   -3.216167448120e-03
   111   -3.527298804535e-04
   112    1.034325795153e-03
   113   -4.788043540666e-04
   114    3.973613821084e-04
   115   -5.682808125075e-03
   116   -3.179510850067e-02
   117    2.196737263923e-02
   118   -1.990873192769e-02
   119    6.529138441703e-02
   120    2.992421828975e-01
   121    3.236706219040e-02
   122   -8.076607757888e-02
   123    1.438746398009e-01
   124   -3.984649242309e+00
   125   -3.327164599902e+00
   126    2.017590778176e+00
   127    1.649445211656e+00
   128    9.542342934135e-04
   129   -2.630653457184e-03
   130   -2.831363937278e-03
   131    7.191878982216e-04
   132    4.149451711016e-03
   133    4.722168107918e-03
   134    1.740108810903e-02
   135   -5.570736034604e-02
   136   -1.153778191982e-02
   137   -3.291573575406e-02
   138   -4.273034283802e-02
   139   -7.723988402224e-02
   140   -7.843293397897e-02
   141   -4.502794180243e-02
   142    1.993924038603e-02
   143   -8.706352637650e-01
   144    1.722745764534e-01
   145   -1.641491954639e-01
   146   -1.816638917301e-01
   147   -3.597433729985e-03
   148   -4.367810430918e-03
   149   -2.397281920269e-03
   150   -1.904336911771e-03
   151    3.550289213161e-03
   152    2.476921102236e-03
   153    1.302421195936e-02
   154   -4.311605916603e-02
   155   -6.813374556008e-02
   156   -1.035468117641e-02
   157    3.011527547912e-02
   158   -6.966382686621e-02
   159    1.264601374319e-03
   160   -7.404480242726e-02
   161   -8.546170993117e-03
   162   -9.982879491013e-02
   163    1.701744583345e+00
   164   -6.519411404561e-01
   165   -8.338935711136e-01
   166   -7.022883312241e-04
   167   -7.981973869760e-03
   168    2.498972427091e-03
   169    2.968796223861e-03
   170    2.952642388635e-03
   171   -2.207195959601e-03
   172    1.643120189944e-02
   173   -2.916577268002e-02
   174    5.114510555539e-03
   175    7.247840874984e-02
   176    7.306633970823e-03
   177    9.097363731133e-02
   178   -3.757547625765e-03
   179    8.366270535573e-02
   180    2.204553057586e-02
   181    5.391466933602e-02
   182    4.485065246601e-03
   183   -7.978517766507e-02

======= END OF MOLDEN-FORMATTED INPUT FILE =======


        *************************************************************
        *                                                           *
        *  Thank you very much for using Q-Chem.  Have a nice day.  *
        *                                                           *
        *************************************************************


0 sent ACK to 0 
now end server 0 ... 
cleanup process ... done
