
Running Job 1 of 1 reac_b.qcin
qchem reac_b.qcin_61932.0 /tmp/reac_b.qcin/ 1
/programs/x86_64/lib/qchem-4.3.2/bin/mpi/mpirun_qchem -machinefile /var/spool/torque/aux//113258.vali -np 1 /programs/x86_64/lib/qchem-4.3.2/exe/qcprog.exe reac_b.qcin_61932.0 /tmp/reac_b.qcin/

Process 0 of 1 is on bt2600-16.csail.mit.edu - thread support 0
initial socket setup ...start
initial socket setup ...done 
now start server 0 ... 

cmd = ssh thor /programs/x86_64/lib/qchem-4.3.2/bin/get_hostid 1346027851 > /tmp/reac_b.qcin/lic.dat
                  Welcome to Q-Chem
     A Quantum Leap Into The Future Of Chemistry


 Q-Chem 4.3, Q-Chem, Inc., Pleasanton, CA (2015)

 Y. Shao,  Z. Gan,  E. Epifanovsky,  A. T. B. Gilbert,  M. Wormit,  
 J. Kussmann,  A. W. Lange,  A. Behn,  J. Deng,  X. Feng,  D. Ghosh,  
 M. Goldey,  P. R. Horn,  L. D. Jacobson,  I. Kaliman,  R. Z. Khaliullin,  
 T. Kus,  A. Landau,  J. Liu,  E. I. Proynov,  Y. M. Rhee,  R. M. Richard,  
 M. A. Rohrdanz,  R. P. Steele,  E. J. Sundstrom,  H. L. Woodcock III,  
 P. M. Zimmerman,  D. Zuev,  B. Albrecht,  E. Alguire,  B. Austin,  
 S. A. Baeppler,  G. J. O. Beran,  Y. A. Bernard,  E. Berquist,  
 K. Brandhorst,  K. B. Bravaya,  S. T. Brown,  D. Casanova,  C.-M. Chang,  
 Y. Chen,  S. H. Chien,  K. D. Closser,  D. L. Crittenden,  M. Diedenhofen,  
 R. A. DiStasio Jr.,  H. Do,  A. D. Dutoi,  R. G. Edgar,  P.-T. Fang,  
 S. Fatehi,  Q. Feng,  L. Fusti-Molnar,  A. Ghysels,  
 A. Golubeva-Zadorozhnaya,  J. Gomes,  A. Gunina,  M. W. D. Hanson-Heine,  
 P. H. P. Harbach,  A. W. Hauser,  E. G. Hohenstein,  Z. C. Holden,  K. Hui,  
 T.-C. Jagau,  H. Ji,  B. Kaduk,  K. Khistyaev,  Jaehoon Kim,  Jihan Kim,  
 R. A. King,  P. Klunzinger,  D. Kosenkov,  T. Kowalczyk,  C. M. Krauter,  
 K. U. Lao,  A. Laurent,  K. V. Lawler,  S. Lehtola,  S. V. Levchenko,  
 C. Y. Lin,  Y.-S. Lin,  F. Liu,  E. Livshits,  R. C. Lochan,  A. Luenser,  
 P. Manohar,  S. F. Manzer,  S.-P. Mao,  N. Mardirossian,  A. V. Marenich,  
 L. A. Martinez-Martinez,  S. A. Maurer,  N. J. Mayhall,  K. Nanda,  
 C. M. Oana,  R. Olivares-Amaya,  D. P. O'Neill,  J. A. Parkhill,  
 T. M. Perrine,  R. Peverati,  P. A. Pieniazek,  F. Plasser,  A. Prociuk,  
 D. R. Rehn,  E. Rosta,  N. J. Russ,  N. Sergueev,  S. M. Sharada,  
 S. Sharma,  D. W. Small,  A. Sodt,  T. Stauch,  T. Stein,  D. Stuck,  
 Y.-C. Su,  A. J. W. Thom,  T. Tsuchimochi,  L. Vogt,  O. Vydrov,  T. Wang,  
 M. A. Watson,  J. Wenzel,  A. White,  C. F. Williams,  V. Vanovschi,  
 S. Yeganeh,  S. R. Yost,  Z.-Q. You,  I. Y. Zhang,  X. Zhang,  Y. Zhao,  
 B. R. Brooks,  G. K. L. Chan,  D. M. Chipman,  C. J. Cramer,  
 W. A. Goddard III,  M. S. Gordon,  W. J. Hehre,  A. Klamt,  
 H. F. Schaefer III,  M. W. Schmidt,  C. D. Sherrill,  D. G. Truhlar,  
 A. Warshel,  X. Xu,  A. Aspuru-Guzik,  R. Baer,  A. T. Bell,  N. A. Besley,  
 J.-D. Chai,  A. Dreuw,  B. D. Dunietz,  T. R. Furlani,  S. R. Gwaltney,  
 C.-P. Hsu,  Y. Jung,  J. Kong,  D. S. Lambrecht,  W. Liang,  C. Ochsenfeld,  
 V. A. Rassolov,  L. V. Slipchenko,  J. E. Subotnik,  T. Van Voorhis,  
 J. M. Herbert,  A. I. Krylov,  P. M. W. Gill,  M. Head-Gordon

 Contributors to earlier versions of Q-Chem not listed above: 
 R. D. Adamson,  J. Baker,  E. F. C. Byrd,  A. K. Chakraborty,  C.-L. Cheng,  
 H. Dachsel,  R. J. Doerksen,  G. Hawkins,  A. Heyden,  S. Hirata,  
 G. Kedziora,  F. J. Keil,  C. Kelley,  P. P. Korambath,  W. Kurlancheek,  
 A. M. Lee,  M. S. Lee,  D. Liotard,  I. Lotan,  P. E. Maslen,  N. Nair,  
 D. Neuhauser,  R. Olson,  B. Peters,  J. Ritchie,  N. E. Schultz,  
 N. Shenvi,  A. C. Simmonett,  K. S. Thanthiriwatte,  Q. Wu,  W. Zhang

 Please cite Q-Chem as follows:
 Y. Shao et al., Mol. Phys. 113, 184-215 (2015)
 DOI: 10.1080/00268976.2014.952696

 Q-Chem 4.3.0 for Intel X86 Linux

 Parts of Q-Chem use Armadillo 5.200.1 (Boston Tea Smuggler).
 http://arma.sourceforge.net/

 Q-Chem begins on Wed Apr 26 13:14:05 2017  

Host: 
0

     Scratch files written to /tmp/reac_b.qcin//
 Oct1215 13750_ 19228  19214 4150   
 Parallel job on  1  processors
Processing $rem in /programs/x86_64/lib/qchem-4.3.2/config/preferences.
 MEM_TOTAL  2000 

Checking the input file for inconsistencies... 	...done.

--------------------------------------------------------------
User input:
--------------------------------------------------------------
$rem
JOBTYPE Opt
EXCHANGE B3LYP
BASIS 6-31+G(d)
GUI=2
SOLVENT_METHOD ONSAGER
pdb_print 2
NBO TRUE
$end

$comment
reactantstate
$end

$solvent
CavityRadius    30
Dielectric     78.39
$end


$molecule
-2 1
C        3.29600       -0.86600        2.39400
O        4.50600       -1.03900        2.12000
O        2.92600       -0.95400        3.64500
C        2.15900       -0.62100        1.29800
C        1.96600       -1.76700        0.31200
O        0.94700       -0.47600        2.01100
C        2.44300        0.67600        0.56700
O        1.59900        1.61900        0.54700
C        3.71800        0.81000       -0.11300
H        4.08300       -0.17800       -0.30800
H        4.36500        1.05500        0.71800
H        3.63500        1.42000       -1.07500
H        1.31600       -1.57200       -0.59100
H        1.23900       -2.36100        0.98400
H        2.92900       -2.26400        0.05400
$end

--------------------------------------------------------------
 ----------------------------------------------------------------
             Standard Nuclear Orientation (Angstroms)
    I     Atom           X                Y                Z
 ----------------------------------------------------------------
    1      C       1.2830026172     0.3480087442     0.1757525102
    2      O       1.4934056190     1.5315674351    -0.1764184740
    3      O       2.1928813064    -0.2544305993     0.8960528699
    4      C       0.0033976121    -0.5007857955    -0.2671570292
    5      C      -0.1235337544    -0.7266461583    -1.7690346956
    6      O       0.1441290242    -1.7719361619     0.3350965849
    7      C      -1.2456791660     0.1558269821     0.2859187909
    8      O      -2.0389819342    -0.4731875828     1.0455215787
    9      C      -1.5093668175     1.5352694735    -0.0795784529
   10      H      -0.9793072782     1.7331128758    -0.9891326695
   11      H      -0.8498404139     2.0541798246     0.6022954141
   12      H      -2.6255809964     1.7483281599    -0.1940551011
   13      H      -1.0985184199    -1.1507776935    -2.1504155327
   14      H       0.5493344011    -1.6645924767    -1.7903454717
   15      H       0.2255176351     0.1536051048    -2.3557738550
 ----------------------------------------------------------------
 Molecular Point Group                 C1    NOp =  1
 Largest Abelian Subgroup              C1    NOp =  1
 Nuclear Repulsion Energy =   453.4532808087 hartrees
 There are       35 alpha and       35 beta electrons
 Requested basis set is 6-31+G(d)
 There are 57 shells and 183 basis functions

 Total QAlloc Memory Limit   2000 MB
 Mega-Array Size        61 MB
 MEM_STATIC part        62 MB
 A cutoff of  1.0D-11 yielded   1552 shell pairs
 There are     16644 function pairs
 
 -------------------------------------------------------
 OpenMP Integral Computing Module                       
 Release: version 1.0, May 2013, Q-Chem Inc. Pittsburgh 
 -------------------------------------------------------
 Integral Job Info:
 Integral job number is                      11
 Integral operator is                         1
 short-range coefficients                     0
 long-range coefficients              100000000
 Omega coefficients                           0
 if combine SR and LR in K                    0
 Integral screening is                        0
 Integral computing path is                   2
 max size of driver memory is            800000
 size of driver memory is                593474
 size of scratch memory is              2260544
 max col of scratch BK array               1296
 max len of scratch array in speh3          155
 max len of scratch index in speh4           18
 max int batch size is                      520
 min int batch size is                       52
 fixed nKL is                                52
 max L of basis functions is                  2
 order of int derivative is                   0
 number of shells is                         57
 number of basis is                         183
 number of cartesian basis is               183
 number of contracted shell pairs          1552
 number of primitive shell pairs           5383
 maxK2 (contraction) of shell pair           36
 max number of K2 of shell pair               1
 max number of CS2 of shell pair            205
 max number of PS2 of shell pair           1230
 mem total for path MDJ                   44296
 -------------------------------------------------------
 Smallest overlap matrix eigenvalue = 3.09E-05
 Placing solute cavity origin at the center of mass
 Center of Onsager solute cavity (Angst): (   0.036391,  -0.021891,   0.052396)
 Solvent multipole matrices computed through 15th order

 Scale SEOQF with 1.000000e-01/1.000000e-01/1.000000e-01

 Standard Electronic Orientation quadrupole field applied
 Guess from superposition of atomic densities
 Warning:  Energy on first SCF cycle will be non-variational
 A restricted hybrid HF-DFT SCF calculation will be
 performed using Pulay DIIS extrapolation
 Kirkwood-Onsager solvation model will be applied
 Exchange:     0.2000 Hartree-Fock + 0.0800 Slater + 0.7200 B88
 Correlation:  0.1900 VWN1RPA + 0.8100 LYP
 Using SG-1 standard quadrature grid
 SCF converges when DIIS error is below 1.0E-08
 Kirkwood-Onsager SCRF: 
 Maximum multipole order     = 15
 Solvent dielectric constant = 78.3900
 Cavity radius               = 56.6917 bohr
 Born term (E_born)          = -0.03482849 a.u. = -21.8552 kcal/mol
 CPU 0.00 s  wall 0.00 s
 Inaccurate integrated density:
   Number of electrons =    70
   Numerical integral  =    68.000112916524
   Relative error      =    -2.8569815478 %
 CPU 4.91 s  wall 4.91 s
 ---------------------------------------
  Cycle       Energy         DIIS Error
 ---------------------------------------
    1    -496.1953152805      4.83E-02
 CPU 0.00 s  wall 0.00 s
 CPU 5.47 s  wall 5.47 s
    2    -494.4986466503      1.11E-02
 CPU 0.00 s  wall 0.00 s
 CPU 5.48 s  wall 5.48 s
    3    -485.7442468357      3.46E-02
 CPU 0.00 s  wall 0.00 s
 CPU 5.47 s  wall 5.47 s
    4    -494.5340698312      1.06E-02
 CPU 0.00 s  wall 0.00 s
 CPU 5.45 s  wall 5.45 s
    5    -494.9268391411      3.02E-03
 CPU 0.00 s  wall 0.00 s
 CPU 5.43 s  wall 5.43 s
    6    -494.9391208007      3.27E-03
 CPU 0.00 s  wall 0.00 s
 CPU 5.41 s  wall 5.41 s
    7    -494.9733435018      9.08E-04
 CPU 0.00 s  wall 0.00 s
 CPU 5.38 s  wall 5.38 s
    8    -494.9750851273      5.43E-04
 CPU 0.00 s  wall 0.00 s
 CPU 5.35 s  wall 5.35 s
    9    -494.9762008663      8.67E-05
 CPU 0.00 s  wall 0.00 s
 CPU 5.26 s  wall 5.26 s
   10    -494.9762224412      4.60E-05
 CPU 0.00 s  wall 0.00 s
 CPU 5.21 s  wall 5.21 s
   11    -494.9762289639      1.88E-05
 CPU 0.00 s  wall 0.00 s
 CPU 5.15 s  wall 5.15 s
   12    -494.9762301750      6.78E-06
 CPU 0.00 s  wall 0.00 s
 CPU 5.50 s  wall 5.50 s
   13    -494.9762303753      1.81E-06
 CPU 0.00 s  wall 0.00 s
 CPU 5.02 s  wall 5.02 s
   14    -494.9762303898      3.19E-07
 CPU 0.00 s  wall 0.00 s
 CPU 4.90 s  wall 4.90 s
   15    -494.9762303891      1.49E-07
 CPU 0.00 s  wall 0.00 s
 CPU 4.82 s  wall 4.82 s
   16    -494.9762303891      3.82E-08
 CPU 0.00 s  wall 0.00 s
 CPU 4.59 s  wall 4.59 s
   17    -494.9762303889      1.30E-08
 CPU 0.00 s  wall 0.00 s
 CPU 4.38 s  wall 4.38 s
   18    -494.9762303884      5.30E-09 Convergence criterion met
 ---------------------------------------
 SCF time:  CPU 222.87 s  wall 222.15 s
 SCF   energy in the final basis set = -494.9762303884
 Total energy in the final basis set = -494.9762303884
 
 --------------------------------------------------------------
 
                    Orbital Energies (a.u.)
 --------------------------------------------------------------
 
 Alpha MOs
 -- Occupied --
-18.848 -18.781 -18.757 -18.707  -9.976  -9.948  -9.920  -9.914
 -9.903  -0.723  -0.695  -0.587  -0.565  -0.493  -0.417  -0.328
 -0.238  -0.194  -0.191  -0.148  -0.145  -0.131  -0.115  -0.098
 -0.070  -0.067  -0.051  -0.040   0.002   0.047   0.069   0.083
  0.109   0.145   0.156
 -- Virtual --
  0.216   0.231   0.254   0.261   0.278   0.284   0.292   0.298
  0.308   0.318   0.324   0.336   0.341   0.352   0.361   0.362
  0.382   0.387   0.391   0.418   0.433   0.450   0.459   0.481
  0.485   0.498   0.515   0.522   0.539   0.540   0.556   0.565
  0.570   0.581   0.583   0.594   0.609   0.611   0.622   0.636
  0.640   0.646   0.661   0.677   0.682   0.686   0.709   0.739
  0.762   0.766   0.824   0.850   0.930   0.938   0.951   0.983
  1.023   1.033   1.050   1.090   1.122   1.129   1.157   1.170
  1.187   1.205   1.223   1.245   1.271   1.297   1.345   1.358
  1.412   1.457   1.481   1.521   1.542   1.564   1.589   1.615
  1.628   1.644   1.670   1.681   1.686   1.717   1.733   1.747
  1.777   1.818   1.828   1.842   1.869   1.930   1.958   1.987
  2.051   2.059   2.077   2.100   2.125   2.144   2.166   2.189
  2.214   2.217   2.240   2.261   2.287   2.293   2.325   2.349
  2.375   2.406   2.434   2.445   2.458   2.500   2.543   2.575
  2.597   2.629   2.680   2.689   2.764   2.783   2.839   2.913
  2.952   2.971   3.028   3.100   3.151   3.280   3.324   3.368
  3.436   3.492   3.582   4.454   4.538   4.582   4.613   4.701
  4.788   4.842   4.960   5.151
 --------------------------------------------------------------
 
          Ground-State Mulliken Net Atomic Charges

     Atom                 Charge (a.u.)
  ----------------------------------------
      1 C                     0.265844
      2 O                    -0.603713
      3 O                    -0.592765
      4 C                    -0.245727
      5 C                    -0.615121
      6 O                    -0.619254
      7 C                     0.280526
      8 O                    -0.468658
      9 C                    -0.591768
     10 H                     0.241878
     11 H                     0.252764
     12 H                     0.150591
     13 H                     0.156978
     14 H                     0.233857
     15 H                     0.154567
  ----------------------------------------
  Sum of atomic charges =    -2.000000

 -----------------------------------------------------------------
                    Cartesian Multipole Moments
 -----------------------------------------------------------------
    Charge (ESU x 10^10)
                -9.6064
    Dipole Moment (Debye)
         X      -4.9981      Y       4.0468      Z      -3.1338
       Tot       7.1539
    Quadrupole Moments (Debye-Ang)
        XX     -93.7062     XY      -6.1054     YY     -86.0530
        XZ      -0.7287     YZ       5.1837     ZZ     -71.8628
    Octopole Moments (Debye-Ang^2)
       XXX      -8.6577    XXY      -9.0401    XYY      -4.0630
       YYY       3.7925    XXZ     -18.7026    XYZ       1.2458
       YYZ       7.2197    XZZ       5.4233    YZZ       5.2842
       ZZZ      36.7122
    Hexadecapole Moments (Debye-Ang^3)
      XXXX    -943.3335   XXXY      -5.3599   XXYY    -260.7098
      XYYY       0.1617   YYYY    -630.1206   XXXZ      -9.3604
      XXYZ       7.9813   XYYZ      -1.1607   YYYZ       5.1209
      XXZZ    -226.0966   XYZZ       0.6828   YYZZ    -159.5981
      XZZZ     -14.9318   YZZZ     -15.2070   ZZZZ    -461.6078
 -----------------------------------------------------------------
 Calculating analytic gradient of the SCF energy
 CPU 0.00 s  wall 0.00 s
 CPU 8.48 s  wall 8.48 s
 Gradient of SCF Energy
            1           2           3           4           5           6
    1  -0.0729422   0.0242020   0.0389591  -0.0070998  -0.0187493   0.0126381
    2   0.0280355  -0.0336913  -0.0098050   0.0674054   0.0268518  -0.0200795
    3  -0.0336361   0.0229193   0.0220445  -0.0636217   0.0196214   0.0229942
            7           8           9          10          11          12
    1   0.0350004  -0.0191142   0.0209093  -0.0006576   0.0097010  -0.0260945
    2   0.0577241  -0.0301371  -0.0160473  -0.0062289  -0.0220779  -0.0046723
    3  -0.0319775   0.0252412   0.0177788   0.0197896  -0.0142268  -0.0140378
           13          14          15
    1  -0.0070834   0.0085638   0.0017671
    2  -0.0156293  -0.0309192   0.0092712
    3  -0.0115346   0.0135882   0.0050575
 Max gradient component =       7.294E-02
 RMS gradient           =       2.795E-02
 Gradient time:  CPU 67.01 s  wall 67.01 s
 Geometry Optimization Parameters
   NAtoms,    NIC,     NZ,  NCons,   NDum,   NFix, NCnnct, MaxDiis
       15      95       0       0       0       0       0       0


** GEOMETRY OPTIMIZATION IN DELOCALIZED INTERNAL COORDINATES **
   Searching for a Minimum

   Optimization Cycle:   1

                       Coordinates (Angstroms)
     ATOM                X               Y               Z
      1  C         1.2830026172    0.3480087442    0.1757525102
      2  O         1.4934056190    1.5315674351   -0.1764184740
      3  O         2.1928813064   -0.2544305993    0.8960528699
      4  C         0.0033976121   -0.5007857955   -0.2671570292
      5  C        -0.1235337544   -0.7266461583   -1.7690346956
      6  O         0.1441290242   -1.7719361619    0.3350965849
      7  C        -1.2456791660    0.1558269821    0.2859187909
      8  O        -2.0389819342   -0.4731875828    1.0455215787
      9  C        -1.5093668175    1.5352694735   -0.0795784529
     10  H        -0.9793072782    1.7331128758   -0.9891326695
     11  H        -0.8498404139    2.0541798246    0.6022954141
     12  H        -2.6255809964    1.7483281599   -0.1940551011
     13  H        -1.0985184199   -1.1507776935   -2.1504155327
     14  H         0.5493344011   -1.6645924767   -1.7903454717
     15  H         0.2255176351    0.1536051048   -2.3557738550
   Point Group: c1    Number of degrees of freedom:    39


   Energy is   -494.976230388


 Attempting to Generate Delocalized Internal Coordinates

 39 Hessian modes will be used to form the next step
  Hessian Eigenvalues:
     0.002000    0.002136    0.005996    0.007107    0.011339    0.015634
     0.047125    0.050076    0.070283    0.074411    0.075270    0.089124
     0.094661    0.160000    0.160000    0.160000    0.160000    0.160000
     0.160000    0.193935    0.200091    0.239327    0.250000    0.250000
     0.250000    0.250000    0.283055    0.294230    0.299788    0.306126
     0.307884    0.321827    0.358385    0.370833    0.380882    0.434349
     0.651435    0.776970    0.822693

 Minimum Search - Taking Simple RFO Step
 Searching for Lamda that Minimizes Along All modes
 Value Taken    Lamda =  -0.06342264
 Calculated Step too Large.  Step scaled by  0.560196
 Step Taken.  Stepsize is  0.300000

                             Maximum     Tolerance    Cnvgd?
         Gradient           0.079167      0.000300      NO
         Displacement       0.132132      0.001200      NO
         Energy change     *********      0.000001      NO


 New Cartesian Coordinates Obtained by Inverse Iteration

 Displacement from previous Coordinates is:  0.441178
 ----------------------------------------------------------------
             Standard Nuclear Orientation (Angstroms)
    I     Atom           X                Y                Z
 ----------------------------------------------------------------
    1      C       1.2860228549     0.3326997852     0.1794618271
    2      O       1.3658314570     1.5276898657    -0.2249737805
    3      O       2.2136253298    -0.2117112507     0.8905552056
    4      C       0.0125362947    -0.5667544486    -0.2253992121
    5      C      -0.0981123996    -0.7389888502    -1.7550045528
    6      O       0.1308822320    -1.8413352665     0.3323235155
    7      C      -1.2514652757     0.1250017828     0.3047325825
    8      O      -2.0792046367    -0.4504865775     1.0451893602
    9      C      -1.4853510353     1.5384388429    -0.0833061668
   10      H      -0.9551400858     1.7438986737    -1.0057557536
   11      H      -0.8601031029     2.1029664789     0.6097867578
   12      H      -2.5765522247     1.7697719853    -0.1900599548
   13      H      -1.0849037716    -1.1217408787    -2.1114609063
   14      H       0.5671684765    -1.6437927026    -1.8705354707
   15      H       0.2356253220     0.1518846925    -2.3268269843
 ----------------------------------------------------------------
 Molecular Point Group                 C1    NOp =  1
 Largest Abelian Subgroup              C1    NOp =  1
 Nuclear Repulsion Energy =   452.5081230515 hartrees
 There are       35 alpha and       35 beta electrons
 Requested basis set is 6-31+G(d)
 There are 57 shells and 183 basis functions
 A cutoff of  1.0D-11 yielded   1556 shell pairs
 There are     16694 function pairs
 Smallest overlap matrix eigenvalue = 2.97E-05
 Placing solute cavity origin at the center of mass
 Center of Onsager solute cavity (Angst): (   0.022633,  -0.033049,   0.052113)
 Solvent multipole matrices computed through 15th order

 Scale SEOQF with 1.000000e-01/1.000000e-01/1.000000e-01

 Standard Electronic Orientation quadrupole field applied
 Guess MOs from SCF MO coefficient file
 Reading MOs from coefficient file
 Reading MOs from coefficient file
 A restricted hybrid HF-DFT SCF calculation will be
 performed using Pulay DIIS extrapolation
 Kirkwood-Onsager solvation model will be applied
 Exchange:     0.2000 Hartree-Fock + 0.0800 Slater + 0.7200 B88
 Correlation:  0.1900 VWN1RPA + 0.8100 LYP
 Using SG-1 standard quadrature grid
 SCF converges when DIIS error is below 1.0E-08
 Kirkwood-Onsager SCRF: 
 Maximum multipole order     = 15
 Solvent dielectric constant = 78.3900
 Cavity radius               = 56.6917 bohr
 Born term (E_born)          = -0.03482849 a.u. = -21.8552 kcal/mol
Geometry optimization detected.  Setting ReadMinima to 0
Setting SaveMinima to 0
 CPU 0.00 s  wall 0.00 s
 Inaccurate integrated density:
   Number of electrons =    70
   Numerical integral  =    70.131921834347
   Relative error      =     0.1884597634 %
 CPU 7.06 s  wall 7.06 s
 ---------------------------------------
  Cycle       Energy         DIIS Error
 ---------------------------------------
    1    -495.0052530210      3.43E-03
 CPU 0.00 s  wall 0.00 s
 CPU 5.40 s  wall 5.40 s
    2    -494.9965617329      1.35E-03
 CPU 0.00 s  wall 0.00 s
 CPU 5.41 s  wall 5.41 s
    3    -494.9762692940      2.85E-03
 CPU 0.00 s  wall 0.00 s
 CPU 5.39 s  wall 5.39 s
    4    -495.0042963627      3.11E-04
 CPU 0.00 s  wall 0.00 s
 CPU 5.34 s  wall 5.34 s
    5    -495.0046751026      1.71E-04
 CPU 0.00 s  wall 0.00 s
 CPU 5.26 s  wall 5.26 s
    6    -495.0047598827      7.11E-05
 CPU 0.00 s  wall 0.00 s
 CPU 5.23 s  wall 5.23 s
    7    -495.0047765034      1.27E-05
 CPU 0.00 s  wall 0.00 s
 CPU 5.16 s  wall 5.16 s
    8    -495.0047771828      3.42E-06
 CPU 0.00 s  wall 0.00 s
 CPU 5.08 s  wall 5.08 s
    9    -495.0047772304      1.93E-06
 CPU 0.00 s  wall 0.00 s
 CPU 4.99 s  wall 4.99 s
   10    -495.0047772430      7.91E-07
 CPU 0.00 s  wall 0.00 s
 CPU 4.93 s  wall 4.93 s
   11    -495.0047772439      3.32E-07
 CPU 0.00 s  wall 0.00 s
 CPU 4.87 s  wall 4.87 s
   12    -495.0047772452      7.22E-08
 CPU 0.00 s  wall 0.00 s
 CPU 4.66 s  wall 4.66 s
   13    -495.0047772456      3.40E-08
 CPU 0.00 s  wall 0.00 s
 CPU 4.47 s  wall 4.47 s
   14    -495.0047772451      7.60E-09 Convergence criterion met
 ---------------------------------------
 SCF time:  CPU 173.25 s  wall 172.77 s
 SCF   energy in the final basis set = -495.0047772451
 Total energy in the final basis set = -495.0047772451
 
 --------------------------------------------------------------
 
                    Orbital Energies (a.u.)
 --------------------------------------------------------------
 
 Alpha MOs
 -- Occupied --
-18.850 -18.780 -18.766 -18.711  -9.977  -9.949  -9.915  -9.914
 -9.898  -0.731  -0.694  -0.597  -0.571  -0.478  -0.416  -0.326
 -0.234  -0.189  -0.180  -0.145  -0.141  -0.130  -0.113  -0.095
 -0.076  -0.071  -0.054  -0.043  -0.005   0.046   0.067   0.076
  0.102   0.141   0.150
 -- Virtual --
  0.218   0.232   0.257   0.262   0.280   0.286   0.295   0.299
  0.309   0.318   0.325   0.337   0.341   0.352   0.360   0.366
  0.383   0.386   0.395   0.413   0.432   0.459   0.468   0.485
  0.488   0.499   0.521   0.523   0.538   0.544   0.558   0.567
  0.568   0.580   0.584   0.592   0.606   0.609   0.623   0.634
  0.637   0.645   0.656   0.673   0.676   0.683   0.701   0.734
  0.758   0.775   0.817   0.861   0.927   0.938   0.956   0.986
  1.027   1.038   1.057   1.101   1.130   1.141   1.150   1.165
  1.186   1.205   1.221   1.253   1.271   1.304   1.343   1.370
  1.421   1.442   1.481   1.520   1.534   1.564   1.591   1.615
  1.623   1.645   1.673   1.682   1.686   1.726   1.727   1.745
  1.778   1.811   1.826   1.840   1.861   1.925   1.956   1.978
  2.033   2.042   2.068   2.089   2.120   2.137   2.177   2.194
  2.203   2.214   2.229   2.278   2.288   2.300   2.308   2.346
  2.376   2.383   2.439   2.459   2.493   2.502   2.549   2.584
  2.601   2.637   2.673   2.707   2.754   2.777   2.831   2.909
  2.950   2.987   3.028   3.078   3.164   3.283   3.334   3.379
  3.450   3.477   3.582   4.443   4.550   4.585   4.612   4.703
  4.786   4.863   4.962   5.138
 --------------------------------------------------------------
 
          Ground-State Mulliken Net Atomic Charges

     Atom                 Charge (a.u.)
  ----------------------------------------
      1 C                     0.294988
      2 O                    -0.613443
      3 O                    -0.594844
      4 C                    -0.226277
      5 C                    -0.604358
      6 O                    -0.638242
      7 C                     0.294489
      8 O                    -0.472340
      9 C                    -0.619811
     10 H                     0.240958
     11 H                     0.244781
     12 H                     0.147768
     13 H                     0.157701
     14 H                     0.224869
     15 H                     0.163763
  ----------------------------------------
  Sum of atomic charges =    -2.000000

 -----------------------------------------------------------------
                    Cartesian Multipole Moments
 -----------------------------------------------------------------
    Charge (ESU x 10^10)
                -9.6064
    Dipole Moment (Debye)
         X      -4.6807      Y       3.9420      Z      -2.9325
       Tot       6.7859
    Quadrupole Moments (Debye-Ang)
        XX     -93.1525     XY      -5.8287     YY     -86.8596
        XZ      -0.5779     YZ       5.1731     ZZ     -71.4924
    Octopole Moments (Debye-Ang^2)
       XXX      -7.8166    XXY      -9.3111    XYY      -3.9983
       YYY       6.3003    XXZ     -18.8066    XYZ       1.3625
       YYZ       7.2901    XZZ       5.0684    YZZ       5.2555
       ZZZ      35.7973
    Hexadecapole Moments (Debye-Ang^3)
      XXXX    -934.1146   XXXY      -1.9494   XXYY    -259.1858
      XYYY       2.1585   YYYY    -646.6725   XXXZ      -5.7865
      XXYZ       7.8862   XYYZ       0.0479   YYYZ       6.5940
      XXZZ    -222.7231   XYZZ       0.4004   YYZZ    -161.6973
      XZZZ     -10.2415   YZZZ     -14.8659   ZZZZ    -454.1751
 -----------------------------------------------------------------
 Calculating analytic gradient of the SCF energy
 CPU 0.00 s  wall 0.00 s
 CPU 8.46 s  wall 8.46 s
 Gradient of SCF Energy
            1           2           3           4           5           6
    1  -0.0478780   0.0115681   0.0292840  -0.0057142  -0.0118549   0.0092526
    2   0.0132162  -0.0150549  -0.0087605   0.0576185   0.0165262  -0.0226240
    3  -0.0228098   0.0124549   0.0184374  -0.0471879   0.0143934   0.0164871
            7           8           9          10          11          12
    1   0.0223959  -0.0140914   0.0050036   0.0017141   0.0108678  -0.0136649
    2   0.0287462  -0.0162437  -0.0098277  -0.0023105  -0.0123602  -0.0031752
    3  -0.0166893   0.0158449   0.0148413   0.0099337  -0.0077566  -0.0112864
           13          14          15
    1  -0.0028740   0.0041420   0.0018493
    2  -0.0102284  -0.0213653   0.0058431
    3  -0.0067706   0.0072422   0.0028658
 Max gradient component =       5.762E-02
 RMS gradient           =       1.886E-02
 Gradient time:  CPU 66.55 s  wall 66.54 s
 Geometry Optimization Parameters
   NAtoms,    NIC,     NZ,  NCons,   NDum,   NFix, NCnnct, MaxDiis
       15      95       0       0       0       0       0       0

 Cartesian Hessian Update
 Hessian Updated using BFGS Update


** GEOMETRY OPTIMIZATION IN DELOCALIZED INTERNAL COORDINATES **
   Searching for a Minimum

   Optimization Cycle:   2

                       Coordinates (Angstroms)
     ATOM                X               Y               Z
      1  C         1.2860228549    0.3326997852    0.1794618271
      2  O         1.3658314570    1.5276898657   -0.2249737805
      3  O         2.2136253298   -0.2117112507    0.8905552056
      4  C         0.0125362947   -0.5667544486   -0.2253992121
      5  C        -0.0981123996   -0.7389888502   -1.7550045528
      6  O         0.1308822320   -1.8413352665    0.3323235155
      7  C        -1.2514652757    0.1250017828    0.3047325825
      8  O        -2.0792046367   -0.4504865775    1.0451893602
      9  C        -1.4853510353    1.5384388429   -0.0833061668
     10  H        -0.9551400858    1.7438986737   -1.0057557536
     11  H        -0.8601031029    2.1029664789    0.6097867578
     12  H        -2.5765522247    1.7697719853   -0.1900599548
     13  H        -1.0849037716   -1.1217408787   -2.1114609063
     14  H         0.5671684765   -1.6437927026   -1.8705354707
     15  H         0.2356253220    0.1518846925   -2.3268269843
   Point Group: c1    Number of degrees of freedom:    39


   Energy is   -495.004777245

 Hessian Updated using BFGS Update

 34 Hessian modes will be used to form the next step
  Hessian Eigenvalues:
     0.002001    0.002171    0.005990    0.007080    0.011334    0.015644
     0.047002    0.055180    0.069364    0.074016    0.074552    0.086632
     0.096357    0.150593    0.160835    0.189530    0.202974    0.232688
     0.242593    0.250000    0.273759    0.285322    0.295279    0.299993
     0.306432    0.309044    0.321686    0.360662    0.367318    0.373371
     0.439254    0.625663    0.766917    0.823458

 Minimum Search - Taking Simple RFO Step
 Searching for Lamda that Minimizes Along All modes
 Value Taken    Lamda =  -0.03684140
 Calculated Step too Large.  Step scaled by  0.577711
 Step Taken.  Stepsize is  0.300000

                             Maximum     Tolerance    Cnvgd?
         Gradient           0.051569      0.000300      NO
         Displacement       0.105584      0.001200      NO
         Energy change     -0.028547      0.000001      NO


 New Cartesian Coordinates Obtained by Inverse Iteration

 Displacement from previous Coordinates is:  0.476195
 ----------------------------------------------------------------
             Standard Nuclear Orientation (Angstroms)
    I     Atom           X                Y                Z
 ----------------------------------------------------------------
    1      C       1.3291169414     0.2915267410     0.1937466354
    2      O       1.3907911341     1.4642865480    -0.2975949785
    3      O       2.2499341515    -0.2440704322     0.8726183113
    4      C       0.0308630316    -0.6165794584    -0.1746992010
    5      C      -0.0667063136    -0.7311396658    -1.7321011986
    6      O       0.1016281976    -1.8723843627     0.3547209771
    7      C      -1.2476019964     0.1152990875     0.3218828040
    8      O      -2.0870514925    -0.4285932832     1.0471356370
    9      C      -1.5099181039     1.5440557453    -0.1028017417
   10      H      -1.0039375488     1.7624872844    -1.0439197533
   11      H      -0.9484833462     2.1794662822     0.5894695586
   12      H      -2.5940904678     1.7403842336    -0.1782468341
   13      H      -1.0709577793    -1.0572832490    -2.0663721173
   14      H       0.5823512507    -1.5998698932    -1.9361499825
   15      H       0.2649217762     0.1699565546    -2.2789616494
 ----------------------------------------------------------------
 Molecular Point Group                 C1    NOp =  1
 Largest Abelian Subgroup              C1    NOp =  1
 Nuclear Repulsion Energy =   451.4053526489 hartrees
 There are       35 alpha and       35 beta electrons
 Requested basis set is 6-31+G(d)
 There are 57 shells and 183 basis functions
 A cutoff of  1.0D-11 yielded   1554 shell pairs
 There are     16654 function pairs
 Smallest overlap matrix eigenvalue = 2.87E-05
 Placing solute cavity origin at the center of mass
 Center of Onsager solute cavity (Angst): (   0.031516,  -0.052517,   0.051713)
 Solvent multipole matrices computed through 15th order

 Scale SEOQF with 1.000000e-01/1.000000e-01/1.000000e-01

 Standard Electronic Orientation quadrupole field applied
 Guess MOs from SCF MO coefficient file
 Reading MOs from coefficient file
 Reading MOs from coefficient file
 A restricted hybrid HF-DFT SCF calculation will be
 performed using Pulay DIIS extrapolation
 Kirkwood-Onsager solvation model will be applied
 Exchange:     0.2000 Hartree-Fock + 0.0800 Slater + 0.7200 B88
 Correlation:  0.1900 VWN1RPA + 0.8100 LYP
 Using SG-1 standard quadrature grid
 SCF converges when DIIS error is below 1.0E-08
 Kirkwood-Onsager SCRF: 
 Maximum multipole order     = 15
 Solvent dielectric constant = 78.3900
 Cavity radius               = 56.6917 bohr
 Born term (E_born)          = -0.03482849 a.u. = -21.8552 kcal/mol
Geometry optimization detected.  Setting ReadMinima to 0
Setting SaveMinima to 0
 CPU 0.00 s  wall 0.00 s
 Inaccurate integrated density:
   Number of electrons =    70
   Numerical integral  =    70.105914348760
   Relative error      =     0.1513062125 %
 CPU 7.02 s  wall 7.02 s
 ---------------------------------------
  Cycle       Energy         DIIS Error
 ---------------------------------------
    1    -495.0340398915      2.51E-03
 CPU 0.00 s  wall 0.00 s
 CPU 5.35 s  wall 5.35 s
    2    -495.0143649770      1.17E-03
 CPU 0.00 s  wall 0.00 s
 CPU 5.36 s  wall 5.36 s
    3    -495.0036797417      2.18E-03
 CPU 0.00 s  wall 0.00 s
 CPU 5.34 s  wall 5.34 s
    4    -495.0203875057      2.51E-04
 CPU 0.00 s  wall 0.00 s
 CPU 5.30 s  wall 5.30 s
    5    -495.0206250129      1.41E-04
 CPU 0.00 s  wall 0.00 s
 CPU 5.23 s  wall 5.23 s
    6    -495.0206825688      5.71E-05
 CPU 0.00 s  wall 0.00 s
 CPU 5.18 s  wall 5.18 s
    7    -495.0206931274      1.20E-05
 CPU 0.00 s  wall 0.00 s
 CPU 5.12 s  wall 5.12 s
    8    -495.0206937150      3.05E-06
 CPU 0.00 s  wall 0.00 s
 CPU 5.03 s  wall 5.03 s
    9    -495.0206937460      1.81E-06
 CPU 0.00 s  wall 0.00 s
 CPU 4.96 s  wall 4.96 s
   10    -495.0206937572      6.59E-07
 CPU 0.00 s  wall 0.00 s
 CPU 4.86 s  wall 4.86 s
   11    -495.0206937574      2.08E-07
 CPU 0.00 s  wall 0.00 s
 CPU 4.80 s  wall 4.80 s
   12    -495.0206937576      3.95E-08
 CPU 0.00 s  wall 0.00 s
 CPU 4.57 s  wall 4.57 s
   13    -495.0206937579      1.67E-08
 CPU 0.00 s  wall 0.00 s
 CPU 4.23 s  wall 4.23 s
   14    -495.0206937571      3.69E-09 Convergence criterion met
 ---------------------------------------
 SCF time:  CPU 171.67 s  wall 171.04 s
 SCF   energy in the final basis set = -495.0206937571
 Total energy in the final basis set = -495.0206937571
 
 --------------------------------------------------------------
 
                    Orbital Energies (a.u.)
 --------------------------------------------------------------
 
 Alpha MOs
 -- Occupied --
-18.852 -18.776 -18.771 -18.715  -9.976  -9.947  -9.915  -9.914
 -9.891  -0.739  -0.695  -0.605  -0.581  -0.469  -0.414  -0.321
 -0.231  -0.187  -0.172  -0.145  -0.137  -0.129  -0.114  -0.092
 -0.081  -0.074  -0.058  -0.045  -0.013   0.045   0.066   0.073
  0.098   0.137   0.147
 -- Virtual --
  0.218   0.234   0.259   0.264   0.281   0.288   0.296   0.300
  0.310   0.317   0.325   0.337   0.342   0.351   0.359   0.371
  0.383   0.385   0.400   0.408   0.429   0.466   0.474   0.487
  0.492   0.503   0.518   0.523   0.537   0.547   0.558   0.564
  0.569   0.581   0.583   0.591   0.603   0.608   0.622   0.632
  0.636   0.647   0.654   0.671   0.673   0.681   0.702   0.732
  0.752   0.792   0.811   0.882   0.922   0.936   0.960   0.989
  1.029   1.043   1.061   1.112   1.135   1.139   1.154   1.163
  1.189   1.204   1.223   1.258   1.269   1.312   1.346   1.378
  1.421   1.444   1.479   1.519   1.530   1.563   1.591   1.611
  1.628   1.644   1.671   1.686   1.690   1.720   1.723   1.743
  1.775   1.797   1.826   1.833   1.853   1.914   1.940   1.968
  2.021   2.032   2.066   2.081   2.116   2.124   2.183   2.191
  2.193   2.212   2.230   2.275   2.282   2.299   2.305   2.333
  2.372   2.387   2.442   2.479   2.495   2.521   2.550   2.595
  2.611   2.647   2.677   2.717   2.754   2.780   2.836   2.902
  2.950   2.997   3.042   3.075   3.177   3.293   3.343   3.389
  3.472   3.476   3.587   4.439   4.551   4.593   4.606   4.711
  4.775   4.884   4.957   5.130
 --------------------------------------------------------------
 
          Ground-State Mulliken Net Atomic Charges

     Atom                 Charge (a.u.)
  ----------------------------------------
      1 C                     0.302179
      2 O                    -0.617568
      3 O                    -0.583649
      4 C                    -0.264658
      5 C                    -0.559421
      6 O                    -0.640250
      7 C                     0.307384
      8 O                    -0.465218
      9 C                    -0.644395
     10 H                     0.234319
     11 H                     0.230308
     12 H                     0.151318
     13 H                     0.157383
     14 H                     0.214676
     15 H                     0.177592
  ----------------------------------------
  Sum of atomic charges =    -2.000000

 -----------------------------------------------------------------
                    Cartesian Multipole Moments
 -----------------------------------------------------------------
    Charge (ESU x 10^10)
                -9.6064
    Dipole Moment (Debye)
         X      -4.5669      Y       3.7529      Z      -2.5803
       Tot       6.4497
    Quadrupole Moments (Debye-Ang)
        XX     -93.4205     XY      -5.8449     YY     -86.6577
        XZ      -0.1693     YZ       5.6152     ZZ     -71.4547
    Octopole Moments (Debye-Ang^2)
       XXX      -8.1550    XXY     -10.9558    XYY      -3.1979
       YYY       5.8023    XXZ     -17.7978    XYZ       2.1590
       YYZ       7.8043    XZZ       5.3947    YZZ       4.9873
       ZZZ      35.8428
    Hexadecapole Moments (Debye-Ang^3)
      XXXX    -956.9984   XXXY       4.5236   XXYY    -262.6947
      XYYY       8.2830   YYYY    -644.6611   XXXZ      -1.4488
      XXYZ      11.5724   XYYZ       0.9922   YYYZ      13.6875
      XXZZ    -224.7819   XYZZ       1.5295   YYZZ    -161.9198
      XZZZ      -6.6370   YZZZ      -9.7973   ZZZZ    -450.2211
 -----------------------------------------------------------------
 Calculating analytic gradient of the SCF energy
 CPU 0.00 s  wall 0.00 s
 CPU 8.46 s  wall 8.46 s
 Gradient of SCF Energy
            1           2           3           4           5           6
    1  -0.0230981   0.0078177   0.0115275  -0.0023432  -0.0035039   0.0049302
    2   0.0030874  -0.0080849  -0.0026227   0.0379338   0.0045389  -0.0146533
    3  -0.0009841   0.0041585   0.0027258  -0.0308020   0.0086056   0.0105251
            7           8           9          10          11          12
    1   0.0083314  -0.0032846  -0.0072321   0.0022406   0.0082301  -0.0039109
    2   0.0083861  -0.0050469  -0.0046011   0.0002585  -0.0054519  -0.0028705
    3  -0.0033536   0.0034831   0.0112034   0.0047623  -0.0050316  -0.0068258
           13          14          15
    1   0.0000991  -0.0017064   0.0019027
    2  -0.0049698  -0.0081130   0.0022094
    3  -0.0025680   0.0031837   0.0009177
 Max gradient component =       3.793E-02
 RMS gradient           =       9.915E-03
 Gradient time:  CPU 66.23 s  wall 66.24 s
 Geometry Optimization Parameters
   NAtoms,    NIC,     NZ,  NCons,   NDum,   NFix, NCnnct, MaxDiis
       15      95       0       0       0       0       0       0

 Cartesian Hessian Update
 Hessian Updated using BFGS Update


** GEOMETRY OPTIMIZATION IN DELOCALIZED INTERNAL COORDINATES **
   Searching for a Minimum

   Optimization Cycle:   3

                       Coordinates (Angstroms)
     ATOM                X               Y               Z
      1  C         1.3291169414    0.2915267410    0.1937466354
      2  O         1.3907911341    1.4642865480   -0.2975949785
      3  O         2.2499341515   -0.2440704322    0.8726183113
      4  C         0.0308630316   -0.6165794584   -0.1746992010
      5  C        -0.0667063136   -0.7311396658   -1.7321011986
      6  O         0.1016281976   -1.8723843627    0.3547209771
      7  C        -1.2476019964    0.1152990875    0.3218828040
      8  O        -2.0870514925   -0.4285932832    1.0471356370
      9  C        -1.5099181039    1.5440557453   -0.1028017417
     10  H        -1.0039375488    1.7624872844   -1.0439197533
     11  H        -0.9484833462    2.1794662822    0.5894695586
     12  H        -2.5940904678    1.7403842336   -0.1782468341
     13  H        -1.0709577793   -1.0572832490   -2.0663721173
     14  H         0.5823512507   -1.5998698932   -1.9361499825
     15  H         0.2649217762    0.1699565546   -2.2789616494
   Point Group: c1    Number of degrees of freedom:    39


   Energy is   -495.020693757

 Hessian Updated using BFGS Update

 36 Hessian modes will be used to form the next step
  Hessian Eigenvalues:
     0.002005    0.002403    0.005990    0.007321    0.011522    0.015676
     0.047479    0.049651    0.069846    0.074016    0.074556    0.085515
     0.096268    0.157142    0.160152    0.163968    0.194790    0.203078
     0.232070    0.248624    0.250000    0.251426    0.276996    0.285159
     0.289900    0.300320    0.306415    0.310404    0.321673    0.358913
     0.361961    0.373312    0.439828    0.642308    0.777264    0.821089

 Minimum Search - Taking Simple RFO Step
 Searching for Lamda that Minimizes Along All modes
 Value Taken    Lamda =  -0.01800092
 Calculated Step too Large.  Step scaled by  0.477814
 Step Taken.  Stepsize is  0.300000

                             Maximum     Tolerance    Cnvgd?
         Gradient           0.020962      0.000300      NO
         Displacement       0.139330      0.001200      NO
         Energy change     -0.015917      0.000001      NO


 New Cartesian Coordinates Obtained by Inverse Iteration

 Displacement from previous Coordinates is:  0.331197
 ----------------------------------------------------------------
             Standard Nuclear Orientation (Angstroms)
    I     Atom           X                Y                Z
 ----------------------------------------------------------------
    1      C       1.3448901956     0.2698059500     0.1718305530
    2      O       1.3126247512     1.4695340446    -0.2668759818
    3      O       2.2351036676    -0.2077837333     0.9105984658
    4      C       0.0429725520    -0.6689412336    -0.1549470519
    5      C      -0.0703116160    -0.7338807009    -1.7286900693
    6      O       0.0995018625    -1.9067234918     0.3577777312
    7      C      -1.2313189754     0.1005198531     0.3248776846
    8      O      -2.0772692632    -0.4083183726     1.0592975203
    9      C      -1.4786892469     1.5391664448    -0.1267640933
   10      H      -0.9923325106     1.7438241674    -1.0835835564
   11      H      -0.9429283490     2.1996202399     0.5638156074
   12      H      -2.5598522901     1.7398025957    -0.1702269650
   13      H      -1.0860987606    -1.0361415918    -2.0432507792
   14      H       0.5845170961    -1.5706683786    -1.9980101720
   15      H       0.2400503214     0.1877263395    -2.2471224263
 ----------------------------------------------------------------
 Molecular Point Group                 C1    NOp =  1
 Largest Abelian Subgroup              C1    NOp =  1
 Nuclear Repulsion Energy =   452.0949027332 hartrees
 There are       35 alpha and       35 beta electrons
 Requested basis set is 6-31+G(d)
 There are 57 shells and 183 basis functions
 A cutoff of  1.0D-11 yielded   1555 shell pairs
 There are     16655 function pairs
 Smallest overlap matrix eigenvalue = 2.82E-05
 Placing solute cavity origin at the center of mass
 Center of Onsager solute cavity (Angst): (   0.027748,  -0.057508,   0.059718)
 Solvent multipole matrices computed through 15th order

 Scale SEOQF with 1.000000e-01/1.000000e-01/1.000000e-01

 Standard Electronic Orientation quadrupole field applied
 Guess MOs from SCF MO coefficient file
 Reading MOs from coefficient file
 Reading MOs from coefficient file
 A restricted hybrid HF-DFT SCF calculation will be
 performed using Pulay DIIS extrapolation
 Kirkwood-Onsager solvation model will be applied
 Exchange:     0.2000 Hartree-Fock + 0.0800 Slater + 0.7200 B88
 Correlation:  0.1900 VWN1RPA + 0.8100 LYP
 Using SG-1 standard quadrature grid
 SCF converges when DIIS error is below 1.0E-08
 Kirkwood-Onsager SCRF: 
 Maximum multipole order     = 15
 Solvent dielectric constant = 78.3900
 Cavity radius               = 56.6917 bohr
 Born term (E_born)          = -0.03482849 a.u. = -21.8552 kcal/mol
Geometry optimization detected.  Setting ReadMinima to 0
Setting SaveMinima to 0
 CPU 0.00 s  wall 0.00 s
 CPU 7.04 s  wall 7.04 s
 ---------------------------------------
  Cycle       Energy         DIIS Error
 ---------------------------------------
    1    -495.0277238288      2.39E-03
 CPU 0.00 s  wall 0.00 s
 CPU 5.39 s  wall 5.39 s
    2    -495.0213337139      9.87E-04
 CPU 0.00 s  wall 0.00 s
 CPU 5.39 s  wall 5.39 s
    3    -495.0122013138      1.95E-03
 CPU 0.00 s  wall 0.00 s
 CPU 5.37 s  wall 5.37 s
    4    -495.0253967581      1.76E-04
 CPU 0.00 s  wall 0.00 s
 CPU 5.33 s  wall 5.33 s
    5    -495.0254915628      1.18E-04
 CPU 0.00 s  wall 0.00 s
 CPU 5.24 s  wall 5.24 s
    6    -495.0255361427      2.96E-05
 CPU 0.00 s  wall 0.00 s
 CPU 5.18 s  wall 5.18 s
    7    -495.0255388635      8.57E-06
 CPU 0.00 s  wall 0.00 s
 CPU 5.13 s  wall 5.13 s
    8    -495.0255391770      1.93E-06
 CPU 0.00 s  wall 0.00 s
 CPU 5.05 s  wall 5.05 s
    9    -495.0255391903      1.28E-06
 CPU 0.00 s  wall 0.00 s
 CPU 4.91 s  wall 4.91 s
   10    -495.0255391986      3.02E-07
 CPU 0.00 s  wall 0.00 s
 CPU 4.85 s  wall 4.85 s
   11    -495.0255391979      1.54E-07
 CPU 0.00 s  wall 0.00 s
 CPU 4.74 s  wall 4.74 s
   12    -495.0255391982      4.76E-08
 CPU 0.00 s  wall 0.00 s
 CPU 4.44 s  wall 4.44 s
   13    -495.0255391974      1.59E-08
 CPU 0.00 s  wall 0.00 s
 CPU 4.32 s  wall 4.32 s
   14    -495.0255391973      3.62E-09 Convergence criterion met
 ---------------------------------------
 SCF time:  CPU 170.70 s  wall 170.22 s
 SCF   energy in the final basis set = -495.0255391973
 Total energy in the final basis set = -495.0255391973
 
 --------------------------------------------------------------
 
                    Orbital Energies (a.u.)
 --------------------------------------------------------------
 
 Alpha MOs
 -- Occupied --
-18.851 -18.774 -18.774 -18.719  -9.974  -9.946  -9.914  -9.911
 -9.888  -0.741  -0.697  -0.608  -0.592  -0.463  -0.414  -0.318
 -0.228  -0.185  -0.165  -0.144  -0.136  -0.128  -0.111  -0.091
 -0.084  -0.074  -0.059  -0.045  -0.019   0.044   0.064   0.071
  0.095   0.132   0.144
 -- Virtual --
  0.220   0.234   0.260   0.265   0.282   0.289   0.298   0.300
  0.310   0.317   0.327   0.338   0.342   0.351   0.359   0.373
  0.382   0.387   0.401   0.404   0.430   0.467   0.479   0.490
  0.494   0.504   0.522   0.524   0.536   0.546   0.560   0.563
  0.569   0.582   0.586   0.590   0.599   0.607   0.621   0.633
  0.634   0.647   0.653   0.669   0.670   0.683   0.698   0.731
  0.749   0.798   0.809   0.898   0.923   0.939   0.963   0.996
  1.027   1.046   1.068   1.124   1.132   1.145   1.160   1.165
  1.187   1.208   1.227   1.260   1.272   1.317   1.346   1.383
  1.414   1.443   1.483   1.514   1.530   1.567   1.592   1.608
  1.630   1.647   1.671   1.680   1.690   1.709   1.725   1.739
  1.775   1.798   1.818   1.844   1.851   1.915   1.936   1.957
  2.014   2.023   2.065   2.077   2.117   2.120   2.177   2.186
  2.205   2.218   2.233   2.275   2.281   2.295   2.312   2.330
  2.368   2.380   2.443   2.488   2.504   2.545   2.555   2.611
  2.617   2.653   2.681   2.722   2.765   2.772   2.832   2.918
  2.947   3.007   3.045   3.066   3.189   3.293   3.341   3.404
  3.474   3.493   3.584   4.442   4.555   4.600   4.614   4.720
  4.774   4.881   4.992   5.117
 --------------------------------------------------------------
 
          Ground-State Mulliken Net Atomic Charges

     Atom                 Charge (a.u.)
  ----------------------------------------
      1 C                     0.312413
      2 O                    -0.618525
      3 O                    -0.579453
      4 C                    -0.295394
      5 C                    -0.530089
      6 O                    -0.641077
      7 C                     0.307111
      8 O                    -0.465927
      9 C                    -0.641575
     10 H                     0.228181
     11 H                     0.229837
     12 H                     0.148396
     13 H                     0.157954
     14 H                     0.205422
     15 H                     0.182727
  ----------------------------------------
  Sum of atomic charges =    -2.000000

 -----------------------------------------------------------------
                    Cartesian Multipole Moments
 -----------------------------------------------------------------
    Charge (ESU x 10^10)
                -9.6064
    Dipole Moment (Debye)
         X      -4.2742      Y       3.5428      Z      -2.5433
       Tot       6.1064
    Quadrupole Moments (Debye-Ang)
        XX     -92.5191     XY      -5.7046     YY     -87.0284
        XZ      -0.7107     YZ       5.1873     ZZ     -71.8756
    Octopole Moments (Debye-Ang^2)
       XXX      -6.2846    XXY     -11.2834    XYY      -3.3852
       YYY       6.6790    XXZ     -17.7177    XYZ       1.6626
       YYZ       8.4393    XZZ       5.4610    YZZ       5.2189
       ZZZ      37.6504
    Hexadecapole Moments (Debye-Ang^3)
      XXXX    -934.9002   XXXY       6.4065   XXYY    -259.6112
      XYYY       8.1563   YYYY    -652.1933   XXXZ      -7.0699
      XXYZ      10.6956   XYYZ      -1.1444   YYYZ      13.4316
      XXZZ    -223.0947   XYZZ       1.0113   YYZZ    -164.4851
      XZZZ     -10.4293   YZZZ     -11.6973   ZZZZ    -458.0062
 -----------------------------------------------------------------
 Calculating analytic gradient of the SCF energy
 CPU 0.00 s  wall 0.00 s
 CPU 8.46 s  wall 8.46 s
 Gradient of SCF Energy
            1           2           3           4           5           6
    1   0.0025384  -0.0013998  -0.0031404  -0.0044176   0.0007994   0.0025992
    2  -0.0101651   0.0000704   0.0043072   0.0214070   0.0018818  -0.0063177
    3  -0.0139685   0.0080660   0.0034256  -0.0132276   0.0060583   0.0058955
            7           8           9          10          11          12
    1   0.0015976   0.0006963  -0.0058187   0.0027004   0.0050119  -0.0002455
    2  -0.0011653  -0.0001517  -0.0019372  -0.0000771  -0.0021884  -0.0015149
    3  -0.0012597  -0.0000143   0.0079075   0.0016960  -0.0027405  -0.0036783
           13          14          15
    1   0.0001961  -0.0026877   0.0015703
    2  -0.0021748  -0.0026392   0.0006649
    3  -0.0004253   0.0018369   0.0004282
 Max gradient component =       2.141E-02
 RMS gradient           =       5.542E-03
 Gradient time:  CPU 66.49 s  wall 66.50 s
 Geometry Optimization Parameters
   NAtoms,    NIC,     NZ,  NCons,   NDum,   NFix, NCnnct, MaxDiis
       15      95       0       0       0       0       0       0

 Cartesian Hessian Update
 Hessian Updated using BFGS Update


** GEOMETRY OPTIMIZATION IN DELOCALIZED INTERNAL COORDINATES **
   Searching for a Minimum

   Optimization Cycle:   4

                       Coordinates (Angstroms)
     ATOM                X               Y               Z
      1  C         1.3448901956    0.2698059500    0.1718305530
      2  O         1.3126247512    1.4695340446   -0.2668759818
      3  O         2.2351036676   -0.2077837333    0.9105984658
      4  C         0.0429725520   -0.6689412336   -0.1549470519
      5  C        -0.0703116160   -0.7338807009   -1.7286900693
      6  O         0.0995018625   -1.9067234918    0.3577777312
      7  C        -1.2313189754    0.1005198531    0.3248776846
      8  O        -2.0772692632   -0.4083183726    1.0592975203
      9  C        -1.4786892469    1.5391664448   -0.1267640933
     10  H        -0.9923325106    1.7438241674   -1.0835835564
     11  H        -0.9429283490    2.1996202399    0.5638156074
     12  H        -2.5598522901    1.7398025957   -0.1702269650
     13  H        -1.0860987606   -1.0361415918   -2.0432507792
     14  H         0.5845170961   -1.5706683786   -1.9980101720
     15  H         0.2400503214    0.1877263395   -2.2471224263
   Point Group: c1    Number of degrees of freedom:    39


   Energy is   -495.025539197

 Hessian Updated using BFGS Update

 37 Hessian modes will be used to form the next step
  Hessian Eigenvalues:
     0.002023    0.005097    0.007022    0.007256    0.011772    0.015670
     0.047391    0.067049    0.069834    0.072485    0.074813    0.081982
     0.095575    0.152260    0.160146    0.161174    0.161979    0.192672
     0.203256    0.220059    0.246525    0.250001    0.250632    0.276331
     0.288343    0.290496    0.303958    0.306190    0.318445    0.321683
     0.358617    0.361107    0.374707    0.439376    0.654090    0.780195
     0.820081

 Minimum Search - Taking Simple RFO Step
 Searching for Lamda that Minimizes Along All modes
 Value Taken    Lamda =  -0.01645887
 Calculated Step too Large.  Step scaled by  0.364935
 Step Taken.  Stepsize is  0.300000

                             Maximum     Tolerance    Cnvgd?
         Gradient           0.009365      0.000300      NO
         Displacement       0.138754      0.001200      NO
         Energy change     -0.004845      0.000001      NO


 New Cartesian Coordinates Obtained by Inverse Iteration

 Displacement from previous Coordinates is:  0.362519
 ----------------------------------------------------------------
             Standard Nuclear Orientation (Angstroms)
    I     Atom           X                Y                Z
 ----------------------------------------------------------------
    1      C       1.3347096097     0.2652137000     0.2059072126
    2      O       1.2971564158     1.4236154440    -0.3440550223
    3      O       2.2719950700    -0.2126581077     0.8716935613
    4      C       0.0432028954    -0.7149262253    -0.1106267767
    5      C      -0.0606236062    -0.7177637458    -1.7038358879
    6      O       0.0863681930    -1.9403514076     0.3720224539
    7      C      -1.2377004504     0.0853361396     0.3363024079
    8      O      -2.1046339978    -0.3951786196     1.0608160470
    9      C      -1.4665212206     1.5325008605    -0.1483533817
   10      H      -0.9867002590     1.7268467408    -1.1128072407
   11      H      -0.9732390190     2.2194237697     0.5503868072
   12      H      -2.5460485255     1.7337556753    -0.1785237529
   13      H      -1.0800814072    -1.0002758775    -2.0205335239
   14      H       0.6099858700    -1.5169412388    -2.0305723643
   15      H       0.2329898667     0.2289450245    -2.1790940726
 ----------------------------------------------------------------
 Molecular Point Group                 C1    NOp =  1
 Largest Abelian Subgroup              C1    NOp =  1
 Nuclear Repulsion Energy =   451.7968326151 hartrees
 There are       35 alpha and       35 beta electrons
 Requested basis set is 6-31+G(d)
 There are 57 shells and 183 basis functions
 A cutoff of  1.0D-11 yielded   1554 shell pairs
 There are     16654 function pairs
 Smallest overlap matrix eigenvalue = 2.75E-05
 Placing solute cavity origin at the center of mass
 Center of Onsager solute cavity (Angst): (   0.026017,  -0.070484,   0.056024)
 Solvent multipole matrices computed through 15th order

 Scale SEOQF with 1.000000e-01/1.000000e-01/1.000000e-01

 Standard Electronic Orientation quadrupole field applied
 Guess MOs from SCF MO coefficient file
 Reading MOs from coefficient file
 Reading MOs from coefficient file
 A restricted hybrid HF-DFT SCF calculation will be
 performed using Pulay DIIS extrapolation
 Kirkwood-Onsager solvation model will be applied
 Exchange:     0.2000 Hartree-Fock + 0.0800 Slater + 0.7200 B88
 Correlation:  0.1900 VWN1RPA + 0.8100 LYP
 Using SG-1 standard quadrature grid
 SCF converges when DIIS error is below 1.0E-08
 Kirkwood-Onsager SCRF: 
 Maximum multipole order     = 15
 Solvent dielectric constant = 78.3900
 Cavity radius               = 56.6917 bohr
 Born term (E_born)          = -0.03482849 a.u. = -21.8552 kcal/mol
Geometry optimization detected.  Setting ReadMinima to 0
Setting SaveMinima to 0
 CPU 0.00 s  wall 0.00 s
 CPU 7.04 s  wall 7.04 s
 ---------------------------------------
  Cycle       Energy         DIIS Error
 ---------------------------------------
    1    -495.0262232357      2.51E-03
 CPU 0.00 s  wall 0.00 s
 CPU 5.38 s  wall 5.38 s
    2    -495.0243119018      9.29E-04
 CPU 0.00 s  wall 0.00 s
 CPU 5.37 s  wall 5.37 s
    3    -495.0160647465      1.85E-03
 CPU 0.00 s  wall 0.00 s
 CPU 5.35 s  wall 5.35 s
    4    -495.0278574000      1.55E-04
 CPU 0.00 s  wall 0.00 s
 CPU 5.28 s  wall 5.28 s
    5    -495.0279181168      1.11E-04
 CPU 0.00 s  wall 0.00 s
 CPU 5.22 s  wall 5.22 s
    6    -495.0279573529      2.66E-05
 CPU 0.00 s  wall 0.00 s
 CPU 5.15 s  wall 5.15 s
    7    -495.0279596046      8.04E-06
 CPU 0.00 s  wall 0.00 s
 CPU 5.09 s  wall 5.09 s
    8    -495.0279598614      2.17E-06
 CPU 0.00 s  wall 0.00 s
 CPU 5.03 s  wall 5.03 s
    9    -495.0279598779      1.39E-06
 CPU 0.00 s  wall 0.00 s
 CPU 4.91 s  wall 4.91 s
   10    -495.0279598845      3.53E-07
 CPU 0.00 s  wall 0.00 s
 CPU 4.84 s  wall 4.84 s
   11    -495.0279598840      1.48E-07
 CPU 0.00 s  wall 0.00 s
 CPU 4.74 s  wall 4.74 s
   12    -495.0279598847      3.83E-08
 CPU 0.00 s  wall 0.00 s
 CPU 4.48 s  wall 4.48 s
   13    -495.0279598844      1.81E-08
 CPU 0.00 s  wall 0.00 s
 CPU 4.25 s  wall 4.25 s
   14    -495.0279598840      3.21E-09 Convergence criterion met
 ---------------------------------------
 SCF time:  CPU 169.68 s  wall 169.27 s
 SCF   energy in the final basis set = -495.0279598840
 Total energy in the final basis set = -495.0279598840
 
 --------------------------------------------------------------
 
                    Orbital Energies (a.u.)
 --------------------------------------------------------------
 
 Alpha MOs
 -- Occupied --
-18.851 -18.778 -18.774 -18.724  -9.972  -9.947  -9.915  -9.910
 -9.885  -0.742  -0.698  -0.611  -0.603  -0.458  -0.411  -0.315
 -0.225  -0.183  -0.159  -0.143  -0.134  -0.128  -0.108  -0.089
 -0.084  -0.075  -0.060  -0.045  -0.026   0.043   0.060   0.070
  0.092   0.128   0.142
 -- Virtual --
  0.221   0.236   0.261   0.266   0.283   0.290   0.299   0.300
  0.310   0.316   0.328   0.339   0.343   0.351   0.357   0.375
  0.380   0.387   0.399   0.407   0.426   0.469   0.482   0.487
  0.498   0.507   0.519   0.528   0.536   0.545   0.559   0.564
  0.569   0.581   0.583   0.590   0.595   0.608   0.615   0.632
  0.635   0.642   0.654   0.665   0.670   0.681   0.701   0.729
  0.740   0.803   0.809   0.905   0.922   0.940   0.966   1.003
  1.023   1.051   1.072   1.119   1.131   1.147   1.162   1.166
  1.195   1.212   1.231   1.260   1.275   1.319   1.356   1.389
  1.421   1.441   1.483   1.508   1.533   1.566   1.595   1.607
  1.632   1.650   1.668   1.684   1.696   1.708   1.724   1.730
  1.773   1.794   1.820   1.828   1.853   1.911   1.928   1.953
  2.007   2.017   2.063   2.071   2.110   2.118   2.171   2.181
  2.198   2.219   2.230   2.270   2.281   2.286   2.315   2.326
  2.366   2.397   2.441   2.487   2.492   2.549   2.570   2.612
  2.620   2.661   2.689   2.724   2.755   2.777   2.838   2.910
  2.948   3.004   3.051   3.070   3.188   3.299   3.342   3.416
  3.479   3.506   3.587   4.447   4.559   4.600   4.617   4.724
  4.775   4.911   4.973   5.123
 --------------------------------------------------------------
 
          Ground-State Mulliken Net Atomic Charges

     Atom                 Charge (a.u.)
  ----------------------------------------
      1 C                     0.319074
      2 O                    -0.611398
      3 O                    -0.579381
      4 C                    -0.325340
      5 C                    -0.510946
      6 O                    -0.640607
      7 C                     0.327522
      8 O                    -0.472687
      9 C                    -0.648328
     10 H                     0.226268
     11 H                     0.220546
     12 H                     0.148362
     13 H                     0.157120
     14 H                     0.195942
     15 H                     0.193853
  ----------------------------------------
  Sum of atomic charges =    -2.000000

 -----------------------------------------------------------------
                    Cartesian Multipole Moments
 -----------------------------------------------------------------
    Charge (ESU x 10^10)
                -9.6064
    Dipole Moment (Debye)
         X      -4.1396      Y       3.4207      Z      -2.2935
       Tot       5.8393
    Quadrupole Moments (Debye-Ang)
        XX     -93.3776     XY      -5.4654     YY     -86.7337
        XZ      -0.0975     YZ       5.6036     ZZ     -71.6957
    Octopole Moments (Debye-Ang^2)
       XXX      -6.2456    XXY     -12.1047    XYY      -2.6119
       YYY       6.3093    XXZ     -17.4562    XYZ       2.0406
       YYZ       8.4234    XZZ       5.7756    YZZ       4.7864
       ZZZ      36.3666
    Hexadecapole Moments (Debye-Ang^3)
      XXXX    -953.1417   XXXY       9.0981   XXYY    -259.7787
      XYYY      11.4081   YYYY    -650.2310   XXXZ      -1.9685
      XXYZ      13.6506   XYYZ       0.3821   YYYZ      20.4926
      XXZZ    -223.6342   XYZZ       1.5923   YYZZ    -163.5161
      XZZZ      -6.2308   YZZZ      -5.5696   ZZZZ    -449.2177
 -----------------------------------------------------------------
 Calculating analytic gradient of the SCF energy
 CPU 0.00 s  wall 0.00 s
 CPU 8.45 s  wall 8.45 s
 Gradient of SCF Energy
            1           2           3           4           5           6
    1   0.0021013  -0.0029466  -0.0054466   0.0017307   0.0018808   0.0005370
    2  -0.0056737   0.0027380   0.0021064  -0.0010370   0.0001859   0.0029076
    3   0.0126048  -0.0049654  -0.0072603  -0.0042440   0.0041827  -0.0002710
            7           8           9          10          11          12
    1  -0.0027854   0.0035286  -0.0039007   0.0027863   0.0016051   0.0022573
    2  -0.0054183   0.0024947   0.0000929  -0.0000991   0.0001542  -0.0001810
    3   0.0025004  -0.0034008   0.0036640  -0.0014466  -0.0007463  -0.0009248
           13          14          15
    1   0.0000650  -0.0025453   0.0011324
    2   0.0005371   0.0009605   0.0002319
    3   0.0004142   0.0004847  -0.0005918
 Max gradient component =       1.260E-02
 RMS gradient           =       3.354E-03
 Gradient time:  CPU 66.41 s  wall 66.47 s
 Geometry Optimization Parameters
   NAtoms,    NIC,     NZ,  NCons,   NDum,   NFix, NCnnct, MaxDiis
       15      95       0       0       0       0       0       0

 Cartesian Hessian Update
 Hessian Updated using BFGS Update


** GEOMETRY OPTIMIZATION IN DELOCALIZED INTERNAL COORDINATES **
   Searching for a Minimum

   Optimization Cycle:   5

                       Coordinates (Angstroms)
     ATOM                X               Y               Z
      1  C         1.3347096097    0.2652137000    0.2059072126
      2  O         1.2971564158    1.4236154440   -0.3440550223
      3  O         2.2719950700   -0.2126581077    0.8716935613
      4  C         0.0432028954   -0.7149262253   -0.1106267767
      5  C        -0.0606236062   -0.7177637458   -1.7038358879
      6  O         0.0863681930   -1.9403514076    0.3720224539
      7  C        -1.2377004504    0.0853361396    0.3363024079
      8  O        -2.1046339978   -0.3951786196    1.0608160470
      9  C        -1.4665212206    1.5325008605   -0.1483533817
     10  H        -0.9867002590    1.7268467408   -1.1128072407
     11  H        -0.9732390190    2.2194237697    0.5503868072
     12  H        -2.5460485255    1.7337556753   -0.1785237529
     13  H        -1.0800814072   -1.0002758775   -2.0205335239
     14  H         0.6099858700   -1.5169412388   -2.0305723643
     15  H         0.2329898667    0.2289450245   -2.1790940726
   Point Group: c1    Number of degrees of freedom:    39


   Energy is   -495.027959884

 Hessian Updated using BFGS Update

 38 Hessian modes will be used to form the next step
  Hessian Eigenvalues:
     0.002015    0.005996    0.007129    0.011212    0.015647    0.046919
     0.062080    0.069208    0.071803    0.072529    0.075271    0.080439
     0.096228    0.149109    0.160126    0.160223    0.160849    0.161958
     0.191306    0.203322    0.212466    0.247016    0.250438    0.250565
     0.275922    0.288119    0.292840    0.304755    0.305748    0.321593
     0.324375    0.360922    0.366091    0.381332    0.439826    0.656589
     0.783399    0.825174

 Minimum Search - Taking Simple RFO Step
 Searching for Lamda that Minimizes Along All modes
 Value Taken    Lamda =  -0.00317646
 Calculated Step too Large.  Step scaled by  0.728655
 Step Taken.  Stepsize is  0.300000

                             Maximum     Tolerance    Cnvgd?
         Gradient           0.012554      0.000300      NO
         Displacement       0.138495      0.001200      NO
         Energy change     -0.002421      0.000001      NO


 New Cartesian Coordinates Obtained by Inverse Iteration

 Displacement from previous Coordinates is:  0.519310
 ----------------------------------------------------------------
             Standard Nuclear Orientation (Angstroms)
    I     Atom           X                Y                Z
 ----------------------------------------------------------------
    1      C       1.3907228281     0.2237314493     0.2155449610
    2      O       1.4217155805     1.3743387604    -0.3500868605
    3      O       2.2672114776    -0.2688457599     0.9575199220
    4      C       0.0541463363    -0.7114398135    -0.1100717263
    5      C      -0.0567461133    -0.7014262873    -1.7132108557
    6      O       0.0655372737    -1.9446277388     0.3486440199
    7      C      -1.2184848338     0.1080431793     0.3568646772
    8      O      -2.0625599469    -0.3649499741     1.1156036488
    9      C      -1.5069637845     1.5353250970    -0.1701446815
   10      H      -1.0942475950     1.7192562972    -1.1658800606
   11      H      -1.0175107467     2.2645117699     0.4885282093
   12      H      -2.5938933154     1.7009922587    -0.1407740256
   13      H      -1.0729355040    -0.9968184891    -2.0266842324
   14      H       0.6345154687    -1.4773544111    -2.0592433818
   15      H       0.2103523093     0.2568057943    -2.1778831471
 ----------------------------------------------------------------
 Molecular Point Group                 C1    NOp =  1
 Largest Abelian Subgroup              C1    NOp =  1
 Nuclear Repulsion Energy =   449.0131975265 hartrees
 There are       35 alpha and       35 beta electrons
 Requested basis set is 6-31+G(d)
 There are 57 shells and 183 basis functions
 A cutoff of  1.0D-11 yielded   1554 shell pairs
 There are     16649 function pairs
 Smallest overlap matrix eigenvalue = 2.84E-05
 Placing solute cavity origin at the center of mass
 Center of Onsager solute cavity (Angst): (   0.046464,  -0.079321,   0.068807)
 Solvent multipole matrices computed through 15th order

 Scale SEOQF with 1.000000e-01/1.000000e-01/1.000000e-01

 Standard Electronic Orientation quadrupole field applied
 Guess MOs from SCF MO coefficient file
 Reading MOs from coefficient file
 Reading MOs from coefficient file
 A restricted hybrid HF-DFT SCF calculation will be
 performed using Pulay DIIS extrapolation
 Kirkwood-Onsager solvation model will be applied
 Exchange:     0.2000 Hartree-Fock + 0.0800 Slater + 0.7200 B88
 Correlation:  0.1900 VWN1RPA + 0.8100 LYP
 Using SG-1 standard quadrature grid
 SCF converges when DIIS error is below 1.0E-08
 Kirkwood-Onsager SCRF: 
 Maximum multipole order     = 15
 Solvent dielectric constant = 78.3900
 Cavity radius               = 56.6917 bohr
 Born term (E_born)          = -0.03482849 a.u. = -21.8552 kcal/mol
Geometry optimization detected.  Setting ReadMinima to 0
Setting SaveMinima to 0
 CPU 0.00 s  wall 0.00 s
 CPU 7.04 s  wall 7.04 s
 ---------------------------------------
  Cycle       Energy         DIIS Error
 ---------------------------------------
    1    -495.0194428028      2.57E-03
 CPU 0.00 s  wall 0.00 s
 CPU 5.36 s  wall 5.36 s
    2    -495.0282547482      3.57E-04
 CPU 0.00 s  wall 0.00 s
 CPU 5.34 s  wall 5.34 s
    3    -495.0266779499      7.97E-04
 CPU 0.00 s  wall 0.00 s
 CPU 5.30 s  wall 5.30 s
    4    -495.0287881649      8.32E-05
 CPU 0.00 s  wall 0.00 s
 CPU 5.23 s  wall 5.23 s
    5    -495.0288085081      3.51E-05
 CPU 0.00 s  wall 0.00 s
 CPU 5.17 s  wall 5.17 s
    6    -495.0288126043      1.51E-05
 CPU 0.00 s  wall 0.00 s
 CPU 5.12 s  wall 5.12 s
    7    -495.0288131928      7.72E-06
 CPU 0.00 s  wall 0.00 s
 CPU 5.06 s  wall 5.06 s
    8    -495.0288134017      1.42E-06
 CPU 0.00 s  wall 0.00 s
 CPU 4.94 s  wall 4.94 s
    9    -495.0288134091      5.99E-07
 CPU 0.00 s  wall 0.00 s
 CPU 4.86 s  wall 4.86 s
   10    -495.0288134103      2.02E-07
 CPU 0.00 s  wall 0.00 s
 CPU 4.77 s  wall 4.77 s
   11    -495.0288134100      9.37E-08
 CPU 0.00 s  wall 0.00 s
 CPU 4.61 s  wall 4.61 s
   12    -495.0288134099      3.82E-08
 CPU 0.00 s  wall 0.00 s
 CPU 4.36 s  wall 4.36 s
   13    -495.0288134105      7.96E-09 Convergence criterion met
 ---------------------------------------
 SCF time:  CPU 157.54 s  wall 157.12 s
 SCF   energy in the final basis set = -495.0288134105
 Total energy in the final basis set = -495.0288134105
 
 --------------------------------------------------------------
 
                    Orbital Energies (a.u.)
 --------------------------------------------------------------
 
 Alpha MOs
 -- Occupied --
-18.853 -18.778 -18.776 -18.725  -9.975  -9.948  -9.918  -9.916
 -9.885  -0.743  -0.696  -0.610  -0.604  -0.460  -0.410  -0.315
 -0.226  -0.185  -0.160  -0.145  -0.137  -0.128  -0.110  -0.089
 -0.084  -0.076  -0.061  -0.046  -0.027   0.041   0.060   0.069
  0.091   0.128   0.142
 -- Virtual --
  0.218   0.236   0.260   0.265   0.282   0.289   0.297   0.300
  0.309   0.316   0.327   0.338   0.343   0.350   0.358   0.374
  0.380   0.387   0.399   0.404   0.427   0.469   0.475   0.487
  0.497   0.506   0.515   0.524   0.534   0.542   0.558   0.563
  0.567   0.579   0.582   0.590   0.594   0.606   0.613   0.629
  0.631   0.641   0.653   0.663   0.668   0.681   0.702   0.728
  0.738   0.796   0.805   0.900   0.920   0.936   0.966   1.001
  1.021   1.043   1.067   1.119   1.129   1.140   1.158   1.170
  1.191   1.217   1.233   1.253   1.272   1.323   1.355   1.384
  1.428   1.441   1.478   1.500   1.536   1.564   1.592   1.609
  1.624   1.649   1.666   1.683   1.693   1.699   1.722   1.730
  1.767   1.778   1.810   1.829   1.858   1.894   1.918   1.945
  2.005   2.012   2.055   2.067   2.097   2.114   2.166   2.180
  2.188   2.212   2.224   2.259   2.265   2.284   2.304   2.318
  2.362   2.398   2.441   2.489   2.489   2.538   2.552   2.609
  2.620   2.649   2.685   2.705   2.759   2.769   2.836   2.908
  2.934   2.994   3.047   3.057   3.173   3.289   3.335   3.402
  3.470   3.501   3.579   4.436   4.547   4.592   4.610   4.711
  4.770   4.894   4.962   5.103
 --------------------------------------------------------------
 
          Ground-State Mulliken Net Atomic Charges

     Atom                 Charge (a.u.)
  ----------------------------------------
      1 C                     0.299449
      2 O                    -0.606621
      3 O                    -0.577293
      4 C                    -0.298556
      5 C                    -0.523838
      6 O                    -0.635061
      7 C                     0.333001
      8 O                    -0.465325
      9 C                    -0.660888
     10 H                     0.216454
     11 H                     0.218629
     12 H                     0.155208
     13 H                     0.158039
     14 H                     0.193085
     15 H                     0.193718
  ----------------------------------------
  Sum of atomic charges =    -2.000000

 -----------------------------------------------------------------
                    Cartesian Multipole Moments
 -----------------------------------------------------------------
    Charge (ESU x 10^10)
                -9.6064
    Dipole Moment (Debye)
         X      -4.3033      Y       3.4784      Z      -2.3032
       Tot       5.9935
    Quadrupole Moments (Debye-Ang)
        XX     -93.3830     XY      -5.6652     YY     -86.0865
        XZ      -0.2894     YZ       5.5773     ZZ     -72.6768
    Octopole Moments (Debye-Ang^2)
       XXX      -7.2598    XXY     -13.4410    XYY      -2.1336
       YYY       6.3796    XXZ     -17.4912    XYZ       2.6687
       YYZ       9.4420    XZZ       5.6081    YZZ       4.3272
       ZZZ      37.1410
    Hexadecapole Moments (Debye-Ang^3)
      XXXX    -967.5471   XXXY      14.1112   XXYY    -262.8133
      XYYY      16.0155   YYYY    -639.1368   XXXZ      -6.5824
      XXYZ      15.8100   XYYZ      -1.1128   YYYZ      21.6140
      XXZZ    -232.4729   XYZZ       3.1884   YYZZ    -164.6972
      XZZZ     -10.0799   YZZZ      -3.8014   ZZZZ    -468.8841
 -----------------------------------------------------------------
 Calculating analytic gradient of the SCF energy
 CPU 0.00 s  wall 0.00 s
 CPU 8.28 s  wall 8.28 s
 Gradient of SCF Energy
            1           2           3           4           5           6
    1   0.0041783   0.0001148  -0.0017766  -0.0001325   0.0013748   0.0002881
    2  -0.0064531   0.0044004   0.0006548  -0.0000328  -0.0016233   0.0024553
    3   0.0039997  -0.0030554  -0.0016399   0.0017263   0.0010786  -0.0016432
            7           8           9          10          11          12
    1  -0.0008649   0.0003855  -0.0043027   0.0010223  -0.0003240   0.0008104
    2  -0.0024678   0.0005349  -0.0000106   0.0007432   0.0008143   0.0000546
    3   0.0033604  -0.0022090  -0.0002366  -0.0006367  -0.0004429   0.0006436
           13          14          15
    1   0.0000906  -0.0011102   0.0002461
    2   0.0012833   0.0004137  -0.0007671
    3  -0.0000715  -0.0006072  -0.0002663
 Max gradient component =       6.453E-03
 RMS gradient           =       1.988E-03
 Gradient time:  CPU 65.75 s  wall 65.77 s
 Geometry Optimization Parameters
   NAtoms,    NIC,     NZ,  NCons,   NDum,   NFix, NCnnct, MaxDiis
       15      95       0       0       0       0       0       0

 Cartesian Hessian Update
 Hessian Updated using BFGS Update


** GEOMETRY OPTIMIZATION IN DELOCALIZED INTERNAL COORDINATES **
   Searching for a Minimum

   Optimization Cycle:   6

                       Coordinates (Angstroms)
     ATOM                X               Y               Z
      1  C         1.3907228281    0.2237314493    0.2155449610
      2  O         1.4217155805    1.3743387604   -0.3500868605
      3  O         2.2672114776   -0.2688457599    0.9575199220
      4  C         0.0541463363   -0.7114398135   -0.1100717263
      5  C        -0.0567461133   -0.7014262873   -1.7132108557
      6  O         0.0655372737   -1.9446277388    0.3486440199
      7  C        -1.2184848338    0.1080431793    0.3568646772
      8  O        -2.0625599469   -0.3649499741    1.1156036488
      9  C        -1.5069637845    1.5353250970   -0.1701446815
     10  H        -1.0942475950    1.7192562972   -1.1658800606
     11  H        -1.0175107467    2.2645117699    0.4885282093
     12  H        -2.5938933154    1.7009922587   -0.1407740256
     13  H        -1.0729355040   -0.9968184891   -2.0266842324
     14  H         0.6345154687   -1.4773544111   -2.0592433818
     15  H         0.2103523093    0.2568057943   -2.1778831471
   Point Group: c1    Number of degrees of freedom:    39


   Energy is   -495.028813411

 Hessian Updated using BFGS Update

 39 Hessian modes will be used to form the next step
  Hessian Eigenvalues:
     0.002247    0.005344    0.007711    0.012922    0.015634    0.047993
     0.066267    0.069517    0.071775    0.074811    0.078851    0.083669
     0.097376    0.157041    0.159671    0.160001    0.160153    0.161445
     0.162587    0.197474    0.203410    0.220437    0.247357    0.250071
     0.251936    0.276101    0.287542    0.296683    0.304466    0.309659
     0.321592    0.352883    0.360912    0.368488    0.393779    0.440416
     0.641438    0.775670    0.820498

 Minimum Search - Taking Simple RFO Step
 Searching for Lamda that Minimizes Along All modes
 Value Taken    Lamda =  -0.00101185
 Step Taken.  Stepsize is  0.267129

                             Maximum     Tolerance    Cnvgd?
         Gradient           0.007189      0.000300      NO
         Displacement       0.116418      0.001200      NO
         Energy change     -0.000854      0.000001      NO


 New Cartesian Coordinates Obtained by Inverse Iteration

 Displacement from previous Coordinates is:  0.349539
 ----------------------------------------------------------------
             Standard Nuclear Orientation (Angstroms)
    I     Atom           X                Y                Z
 ----------------------------------------------------------------
    1      C       1.3637884343     0.2279127523     0.2186629375
    2      O       1.3957444993     1.3813952435    -0.3312385712
    3      O       2.2353286701    -0.2570483222     0.9783044903
    4      C       0.0411473434    -0.7203331372    -0.1220971840
    5      C      -0.0634262526    -0.7090161074    -1.7258890392
    6      O       0.0554047716    -1.9579728902     0.3440556451
    7      C      -1.2240909736     0.1065710421     0.3420640921
    8      O      -2.0485889793    -0.3446794394     1.1381617121
    9      C      -1.4857177899     1.5397029078    -0.1705510532
   10      H      -1.0957614241     1.7170762001    -1.1740181866
   11      H      -0.9587016026     2.2457397110     0.4835695129
   12      H      -2.5693828601     1.7323937121    -0.1169636786
   13      H      -1.0492335242    -1.0875895117    -2.0492207447
   14      H       0.6939724317    -1.4279174427    -2.0635713359
   15      H       0.1303766906     0.2713074139    -2.1825421297
 ----------------------------------------------------------------
 Molecular Point Group                 C1    NOp =  1
 Largest Abelian Subgroup              C1    NOp =  1
 Nuclear Repulsion Energy =   449.4183119700 hartrees
 There are       35 alpha and       35 beta electrons
 Requested basis set is 6-31+G(d)
 There are 57 shells and 183 basis functions
 A cutoff of  1.0D-11 yielded   1553 shell pairs
[...]
 132. (0.00003) RY*(13) C  7             s( 38.61%)p 0.72( 27.97%)d 0.87( 33.42%)
 133. (0.00002) RY*(14) C  7             s( 28.13%)p 0.72( 20.24%)d 1.84( 51.63%)
 134. (0.00740) RY*( 1) O  8             s(  8.56%)p10.58( 90.51%)d 0.11(  0.94%)
                                         0.0000 -0.0030  0.2885 -0.0481  0.0022
                                         0.0169 -0.4960  0.0377 -0.0103  0.7988
                                        -0.0025 -0.0058  0.1381 -0.0094 -0.0184
                                         0.0028  0.0565  0.0700  0.0304
 135. (0.00117) RY*( 2) O  8             s( 16.03%)p 5.15( 82.48%)d 0.09(  1.50%)
                                         0.0000  0.0017  0.3959  0.0486  0.0335
                                        -0.0001 -0.4115 -0.0492 -0.0032 -0.2597
                                        -0.0873 -0.0192 -0.7542  0.0942  0.0151
                                         0.0259  0.0656 -0.0416 -0.0895
 136. (0.00072) RY*( 3) O  8             s( 60.38%)p 0.61( 36.56%)d 0.05(  3.06%)
                                         0.0000  0.0023  0.7673 -0.0105  0.1218
                                         0.0144  0.1209 -0.1542  0.0000 -0.2775
                                        -0.1059 -0.0030  0.4787  0.0981  0.0018
                                         0.1623  0.0282 -0.0490  0.0328
 137. (0.00048) RY*( 4) O  8             s( 13.75%)p 5.93( 81.57%)d 0.34(  4.68%)
                                         0.0000  0.0069  0.3620  0.0524 -0.0603
                                         0.0089  0.6263  0.4122  0.0041  0.2943
                                         0.1337  0.0000 -0.3385 -0.1854  0.1512
                                        -0.0233 -0.0591  0.0916  0.1075
 138. (0.00015) RY*( 5) O  8             s( 22.01%)p 2.87( 63.27%)d 0.67( 14.71%)
                                         0.0000  0.0092 -0.0780  0.4135  0.2073
                                         0.0186  0.3030 -0.3277  0.0055  0.2973
                                        -0.5580 -0.0144 -0.1412  0.1152 -0.2343
                                         0.1557  0.0141 -0.2174 -0.1432
 139. (0.00008) RY*( 6) O  8             s(  1.27%)p69.92( 88.61%)d 7.99( 10.13%)
 140. (0.00006) RY*( 7) O  8             s(  2.12%)p42.01( 88.87%)d 4.26(  9.01%)
 141. (0.00004) RY*( 8) O  8             s( 34.50%)p 0.10(  3.46%)d 1.80( 62.04%)
 142. (0.00001) RY*( 9) O  8             s( 86.74%)p 0.09(  8.01%)d 0.06(  5.24%)
 143. (0.00001) RY*(10) O  8             s( 42.26%)p 0.71( 30.14%)d 0.65( 27.60%)
 144. (0.00001) RY*(11) O  8             s(  9.74%)p 0.60(  5.84%)d 8.67( 84.43%)
 145. (0.00001) RY*(12) O  8             s(  2.12%)p 2.12(  4.50%)d44.01( 93.38%)
 146. (0.00001) RY*(13) O  8             s(  0.23%)p34.57(  7.97%)d99.99( 91.80%)
 147. (0.00000) RY*(14) O  8             s(  0.31%)p28.90(  8.96%)d99.99( 90.72%)
 148. (0.01695) RY*( 1) C  9             s( 54.95%)p 0.82( 44.96%)d 0.00(  0.08%)
                                         0.0000 -0.0102  0.7412  0.0040  0.0067
                                         0.0093  0.4997 -0.0258 -0.0193 -0.3822
                                         0.1718 -0.0007 -0.0177 -0.1515 -0.0260
                                        -0.0094  0.0020  0.0000 -0.0088
 149. (0.00296) RY*( 2) C  9             s( 12.68%)p 6.66( 84.48%)d 0.22(  2.84%)
                                         0.0000  0.0031 -0.0960  0.3429 -0.0015
                                        -0.0065 -0.1545 -0.2287  0.0031 -0.5567
                                        -0.2026  0.0002  0.6295  0.1461  0.1079
                                        -0.0087 -0.1104 -0.0352  0.0570
 150. (0.00168) RY*( 3) C  9             s( 23.23%)p 3.21( 74.67%)d 0.09(  2.10%)
                                         0.0000 -0.0064  0.3995 -0.2665 -0.0399
                                         0.0116 -0.6537 -0.4297  0.0094  0.1179
                                         0.1273  0.0078  0.1211 -0.2994 -0.0547
                                         0.1109 -0.0080  0.0626 -0.0420
 151. (0.00100) RY*( 4) C  9             s(  5.44%)p15.73( 85.57%)d 1.65(  8.99%)
                                         0.0000  0.0041  0.0579  0.2256  0.0107
                                         0.0028 -0.2731 -0.2241 -0.0017 -0.3724
                                        -0.1635  0.0048 -0.7162  0.2289  0.2596
                                        -0.0358  0.1165 -0.0297 -0.0823
 152. (0.00045) RY*( 5) C  9             s(  8.31%)p 8.96( 74.45%)d 2.07( 17.23%)
                                         0.0000  0.0048  0.0883  0.2318 -0.1470
                                        -0.0064 -0.1949  0.4911 -0.0042 -0.0159
                                        -0.2847  0.0053 -0.0356 -0.6187  0.3133
                                        -0.1987 -0.1842  0.0054  0.0270
 153. (0.00025) RY*( 6) C  9             s( 13.97%)p 1.42( 19.90%)d 4.73( 66.13%)
                                         0.0000 -0.0007  0.0400  0.3716 -0.0006
                                         0.0068  0.1531 -0.2843 -0.0071  0.2642
                                        -0.0773  0.0213 -0.1357 -0.0025 -0.0494
                                         0.2338 -0.5982  0.4650  0.1736
 154. (0.00021) RY*( 7) C  9             s( 25.73%)p 1.86( 47.91%)d 1.02( 26.35%)
                                         0.0000  0.0017  0.3459 -0.3381 -0.1526
                                        -0.0145 -0.0889  0.1935  0.0052  0.1688
                                        -0.2723  0.0099  0.0987  0.5667  0.2649
                                        -0.2012 -0.3828 -0.0723 -0.0334
 155. (0.00011) RY*( 8) C  9             s(  6.45%)p 6.15( 39.67%)d 8.35( 53.88%)
                                         0.0000 -0.0112 -0.0112  0.2166  0.1317
                                        -0.0186  0.0797 -0.2275 -0.0092  0.2796
                                         0.4982  0.0011  0.1071  0.0159  0.6318
                                        -0.3483  0.0631 -0.0884  0.0805
 156. (0.00006) RY*( 9) C  9             s(  2.15%)p37.39( 80.23%)d 8.21( 17.62%)
 157. (0.00002) RY*(10) C  9             s( 48.57%)p 0.65( 31.70%)d 0.41( 19.73%)
 158. (0.00002) RY*(11) C  9             s(  1.07%)p 4.20(  4.48%)d88.57( 94.45%)
 159. (0.00001) RY*(12) C  9             s( 92.76%)p 0.06(  6.02%)d 0.01(  1.22%)
 160. (0.00002) RY*(13) C  9             s(  3.36%)p 1.00(  3.36%)d27.78( 93.28%)
 161. (0.00002) RY*(14) C  9             s(  1.33%)p 2.19(  2.91%)d72.05( 95.76%)
 162. (0.00110) RY*( 1) H 10             s(100.00%)
                                        -0.0024  1.0000
 163. (0.00193) RY*( 1) H 11             s(100.00%)
                                        -0.0026  1.0000
 164. (0.00281) RY*( 1) H 12             s(100.00%)
                                        -0.0041  1.0000
 165. (0.00268) RY*( 1) H 13             s(100.00%)
                                        -0.0042  1.0000
 166. (0.00193) RY*( 1) H 14             s(100.00%)
                                        -0.0040  1.0000
 167. (0.00229) RY*( 1) H 15             s(100.00%)
                                        -0.0049  1.0000
 168. (0.07393) BD*( 1) C  1- O  2       
               ( 66.32%)   0.8144* C  1 s( 30.46%)p 2.28( 69.36%)d 0.01(  0.18%)
                                        -0.0001  0.5493 -0.0543 -0.0018  0.0041
                                         0.4928  0.0548 -0.0081  0.2063  0.0097
                                        -0.0037 -0.6361 -0.0196 -0.0061  0.0049
                                        -0.0345 -0.0148  0.0125  0.0133
               ( 33.68%)  -0.5803* O  2 s( 36.77%)p 1.71( 62.97%)d 0.01(  0.26%)
                                         0.0000  0.6062 -0.0121 -0.0060 -0.0048
                                        -0.6544  0.0143  0.0005  0.1491 -0.0038
                                         0.0019  0.4227 -0.0179  0.0011 -0.0057
                                        -0.0427  0.0023  0.0260  0.0050
 169. (0.36719) BD*( 2) C  1- O  2       
               ( 76.48%)   0.8745* C  1 s(  3.49%)p27.52( 96.16%)d 0.10(  0.35%)
                                         0.0000 -0.1833  0.0368  0.0017  0.0014
                                        -0.5580  0.0037 -0.0115  0.7196 -0.0390
                                         0.0169 -0.3604  0.0225 -0.0046  0.0316
                                         0.0094 -0.0357 -0.0210  0.0260
               ( 23.52%)  -0.4850* O  2 s(  1.83%)p53.50( 97.97%)d 0.11(  0.20%)
                                         0.0000 -0.1352  0.0065  0.0001  0.0013
                                        -0.2902 -0.0015  0.0016  0.7833 -0.0039
                                        -0.0006 -0.5309  0.0088 -0.0010 -0.0255
                                         0.0111  0.0233  0.0096 -0.0234
 170. (0.07547) BD*( 1) C  1- O  3       
               ( 66.44%)   0.8151* C  1 s( 33.35%)p 1.99( 66.45%)d 0.01(  0.19%)
                                         0.0001 -0.5748  0.0553  0.0043 -0.0034
                                         0.0008 -0.0283  0.0064 -0.4792 -0.0323
                                         0.0052 -0.6567 -0.0415 -0.0028  0.0103
                                         0.0010 -0.0373  0.0144 -0.0157
               ( 33.56%)  -0.5793* O  3 s( 35.84%)p 1.78( 63.91%)d 0.01(  0.25%)
                                         0.0000 -0.5985  0.0089  0.0064 -0.0046
                                         0.1012  0.0058 -0.0019  0.1922 -0.0076
                                        -0.0021  0.7690 -0.0213  0.0000 -0.0002
                                        -0.0051 -0.0309  0.0068 -0.0386
 171. (0.14658) BD*( 1) C  1- C  4       
               ( 52.97%)   0.7278* C  1 s( 33.48%)p 1.98( 66.44%)d 0.00(  0.08%)
                                        -0.0005 -0.5739 -0.0735  0.0009  0.0046
                                         0.6571 -0.0115 -0.0221  0.4515  0.0115
                                        -0.0154  0.1666 -0.0048 -0.0033 -0.0181
                                        -0.0118 -0.0005 -0.0069  0.0157
               ( 47.03%)  -0.6858* C  4 s( 24.06%)p 3.15( 75.87%)d 0.00(  0.07%)
                                         0.0003 -0.4895  0.0310 -0.0001  0.0003
                                        -0.7056  0.0081  0.0015 -0.4853  0.0273
                                         0.0155 -0.1556 -0.0025  0.0035 -0.0233
                                        -0.0035 -0.0060 -0.0009  0.0113
 172. (0.08441) BD*( 1) C  4- C  5       
               ( 52.80%)   0.7266* C  4 s( 23.84%)p 3.19( 76.09%)d 0.00(  0.07%)
                                        -0.0003  0.4882  0.0022 -0.0075 -0.0006
                                        -0.1547  0.0061  0.0035  0.0071 -0.0206
                                        -0.0029 -0.8581 -0.0029  0.0084 -0.0014
                                         0.0124 -0.0070  0.0047  0.0221
               ( 47.20%)  -0.6870* C  5 s( 27.71%)p 2.61( 72.25%)d 0.00(  0.04%)
                                         0.0006  0.5258 -0.0237  0.0055  0.0014
                                         0.1438  0.0000  0.0051  0.0461 -0.0141
                                        -0.0081  0.8361 -0.0164 -0.0100 -0.0001
                                         0.0053  0.0017  0.0016  0.0202
 173. (0.01352) BD*( 1) C  4- O  6       
               ( 61.95%)   0.7871* C  4 s( 28.95%)p 2.45( 70.93%)d 0.00(  0.12%)
                                         0.0002 -0.5337 -0.0682 -0.0009 -0.0010
                                        -0.1090 -0.0144 -0.0007  0.7848  0.0528
                                         0.0134 -0.2788 -0.0241 -0.0060  0.0059
                                        -0.0024  0.0173  0.0265  0.0118
               ( 38.05%)  -0.6169* O  6 s( 33.53%)p 1.98( 66.26%)d 0.01(  0.21%)
                                        -0.0001 -0.5787  0.0181  0.0077  0.0007
                                         0.0973 -0.0031 -0.0021 -0.7703  0.0262
                                         0.0092  0.2426 -0.0093 -0.0038  0.0099
                                        -0.0035  0.0231  0.0346  0.0161
 174. (0.12795) BD*( 1) C  4- C  7       
               ( 52.23%)   0.7227* C  4 s( 23.28%)p 3.29( 76.63%)d 0.00(  0.09%)
                                         0.0000  0.4823 -0.0141  0.0029  0.0003
                                        -0.6818  0.0012  0.0033  0.3752 -0.0136
                                        -0.0101  0.4003  0.0071 -0.0025 -0.0206
                                        -0.0129  0.0115  0.0104 -0.0084
               ( 47.77%)  -0.6911* C  7 s( 37.63%)p 1.66( 62.32%)d 0.00(  0.04%)
                                         0.0002  0.6125  0.0341  0.0047 -0.0046
                                         0.6160 -0.0159 -0.0176 -0.4065 -0.0011
                                         0.0106 -0.2785  0.0157  0.0093 -0.0132
                                        -0.0101  0.0090  0.0083 -0.0036
 175. (0.01304) BD*( 1) C  5- H 13       
               ( 39.82%)   0.6310* C  5 s( 24.00%)p 3.16( 75.91%)d 0.00(  0.09%)
                                         0.0000  0.4894  0.0202 -0.0004 -0.0011
                                        -0.6811 -0.0027 -0.0011 -0.5186 -0.0096
                                        -0.0021 -0.1615 -0.0023 -0.0080  0.0244
                                         0.0084  0.0059  0.0078 -0.0136
               ( 60.18%)  -0.7757* H 13 s(100.00%)
                                         1.0000  0.0042
 176. (0.01150) BD*( 1) C  5- H 14       
               ( 37.62%)   0.6133* C  5 s( 24.39%)p 3.10( 75.52%)d 0.00(  0.09%)
                                         0.0001 -0.4936 -0.0145  0.0028 -0.0001
                                        -0.6954 -0.0041  0.0020  0.3192 -0.0017
                                        -0.0004  0.4119 -0.0003  0.0046  0.0149
                                         0.0196 -0.0085 -0.0128  0.0041
               ( 62.38%)  -0.7898* H 14 s(100.00%)
                                        -1.0000 -0.0040
 177. (0.01964) BD*( 1) C  5- H 15       
               ( 40.53%)   0.6367* C  5 s( 24.00%)p 3.16( 75.91%)d 0.00(  0.10%)
                                         0.0001 -0.4894 -0.0210  0.0028  0.0001
                                         0.1744 -0.0035  0.0003 -0.7909 -0.0126
                                         0.0007  0.3206  0.0077  0.0107  0.0102
                                        -0.0043  0.0191  0.0203  0.0087
               ( 59.47%)  -0.7711* H 15 s(100.00%)
                                        -1.0000 -0.0049
 178. (0.01446) BD*( 1) C  7- O  8       
               ( 66.69%)   0.8166* C  7 s( 30.80%)p 2.24( 69.04%)d 0.01(  0.16%)
                                         0.0000 -0.5499  0.0748 -0.0043 -0.0047
                                         0.5749  0.0402  0.0020  0.3674  0.0358
                                         0.0065 -0.4694 -0.0400 -0.0033 -0.0216
                                         0.0268  0.0147 -0.0139 -0.0007
               ( 33.31%)  -0.5772* O  8 s( 43.41%)p 1.30( 56.29%)d 0.01(  0.30%)
                                         0.0000 -0.6587  0.0132  0.0055 -0.0020
                                        -0.5161  0.0105  0.0003 -0.3142  0.0103
                                         0.0017  0.4445 -0.0100 -0.0011 -0.0297
                                         0.0370  0.0239 -0.0141 -0.0022
 179. (0.10627) BD*( 2) C  7- O  8       
               ( 70.89%)   0.8420* C  7 s(  0.05%)p99.99( 99.67%)d 5.66(  0.28%)
                                         0.0000  0.0161 -0.0146 -0.0044 -0.0001
                                         0.5195 -0.0179  0.0139  0.2537 -0.0133
                                         0.0074  0.8130 -0.0207  0.0185 -0.0191
                                        -0.0177 -0.0075 -0.0166  0.0421
               ( 29.11%)  -0.5395* O  8 s(  0.01%)p 1.00( 99.74%)d 0.00(  0.25%)
                                         0.0000  0.0088 -0.0018  0.0014  0.0010
                                         0.5287 -0.0080 -0.0019  0.2556 -0.0043
                                        -0.0008  0.8077 -0.0101  0.0011  0.0209
                                         0.0105  0.0124  0.0109 -0.0411
 180. (0.07067) BD*( 1) C  7- C  9       
               ( 53.56%)   0.7318* C  7 s( 31.81%)p 2.14( 68.11%)d 0.00(  0.08%)
                                        -0.0002  0.5639 -0.0056 -0.0110 -0.0002
                                        -0.1183 -0.0080  0.0039  0.7957  0.0007
                                        -0.0040 -0.1840  0.0092 -0.0018 -0.0077
                                         0.0047 -0.0101 -0.0220 -0.0103
               ( 46.44%)  -0.6815* C  9 s( 27.02%)p 2.70( 72.92%)d 0.00(  0.06%)
                                         0.0002  0.5197 -0.0080 -0.0067  0.0013
                                         0.1372 -0.0121 -0.0015 -0.8235  0.0026
                                         0.0087  0.1785  0.0053  0.0028 -0.0045
                                         0.0025 -0.0085 -0.0203 -0.0099
 181. (0.00975) BD*( 1) C  9- H 10       
               ( 37.79%)   0.6148* C  9 s( 25.83%)p 2.87( 74.09%)d 0.00(  0.09%)
                                         0.0002 -0.5082 -0.0043 -0.0038  0.0007
                                        -0.6368 -0.0056  0.0025 -0.3222 -0.0038
                                        -0.0070  0.4811 -0.0028 -0.0030 -0.0138
                                         0.0211  0.0108 -0.0099  0.0007
               ( 62.21%)  -0.7887* H 10 s(100.00%)
                                        -1.0000 -0.0024
 182. (0.00803) BD*( 1) C  9- H 11       
               ( 38.28%)   0.6187* C  9 s( 23.99%)p 3.16( 75.92%)d 0.00(  0.08%)
                                         0.0001 -0.4897 -0.0083 -0.0032 -0.0001
                                         0.0645 -0.0126 -0.0016 -0.4579  0.0018
                                        -0.0086 -0.7383 -0.0017  0.0027  0.0033
                                         0.0036 -0.0213  0.0066 -0.0177
               ( 61.72%)  -0.7856* H 11 s(100.00%)
                                        -1.0000 -0.0026
 183. (0.01247) BD*( 1) C  9- H 12       
               ( 39.84%)   0.6312* C  9 s( 23.16%)p 3.31( 76.74%)d 0.00(  0.09%)
                                        -0.0001  0.4811  0.0151  0.0014 -0.0006
                                        -0.7550 -0.0023 -0.0032  0.0829 -0.0016
                                         0.0102 -0.4363 -0.0054 -0.0046 -0.0031
                                         0.0227 -0.0011  0.0190 -0.0048
               ( 60.16%)  -0.7756* H 12 s(100.00%)
                                         1.0000  0.0041
 SVNBO: NDIM =          183
 NBO state            0

 *******************************************************************************
Archival summary:
1\1\bt2600-16\OPT\ProcedureUnspecified\6-31+G*\456(2-,1)\emavera\WedApr2616:12:132017WedApr2616:12:132017\0\\#,OPT,ProcedureUnspecified,6-31+G*,\\-2,1\C\O,1,1.33383\C,1,1.56887,2,115.078\O,3,1.2285,1,124.887,2,7.80766,0\C,3,1.54558,1,118.209,2,-175.739,0\H,5,1.09232,3,113.221,1,5.5672,0\H,5,1.09671,3,108.131,1,125.851,0\H,5,1.10237,3,108.576,1,-116.662,0\C,1,1.59373,2,110.571,3,116.247,0\H,9,1.09473,1,105.409,2,63.6775,0\H,9,1.10107,1,108.074,2,-53.6828,0\H,9,1.10529,1,115.657,2,-176.987,0\C,1,1.61508,2,113.485,3,-121.82,0\O,13,1.26597,1,117.88,2,-87.3165,0\O,13,1.27142,1,115.896,2,91.0477,0\\\@

 Total job time:  10687.94s(wall), 10697.66s(cpu) 
 Wed Apr 26 16:12:13 2017

        *************************************************************
        *                                                           *
        *  Thank you very much for using Q-Chem.  Have a nice day.  *
        *                                                           *
        *************************************************************


0 sent ACK to 0 
now end server 0 ... 
cleanup process ... done
