Jobname.Temp
SP        R                             6-31+G(d)           
Number of atoms                            I               15
Charge                                     I               -2
Multiplicity                               I                1
Number of electrons                        I               70
Number of alpha electrons                  I               35
Number of beta electrons                   I               35
Atomic numbers                             I   N=          15
           6           8           8           6           6           8
           6           8           6           1           1           1
           1           1           1
Current cartesian coordinates              R   N=          45
 -2.35795309E+00 -9.63419137E-01  3.90732592E-01 -4.44766121E+00 -5.35162673E-01
 -6.88803643E-01 -1.77454500E+00 -2.94684492E+00  1.61603181E+00 -2.27182906E-01
  1.21601217E+00  2.94869875E-01 -4.00481474E-01  2.58913999E+00 -2.37915262E+00
 -4.23373506E-01  2.89486741E+00  2.16506083E+00  2.36688702E+00 -2.06430788E-01
  1.50118749E-01  4.23399902E+00  3.01961643E-01  1.43229420E+00  2.67541681E+00
 -2.31471735E+00 -1.84754963E+00  9.31272973E-01 -2.72893941E+00 -2.86897484E+00
  3.29321682E+00 -4.03773275E+00 -8.74852790E-01  4.16363283E+00 -1.74651694E+00
 -3.18732122E+00  1.02110823E+00  4.10673382E+00 -2.41808032E+00 -2.29801375E+00
  3.40716628E+00 -2.45484572E+00 -1.58689637E-01  1.35720792E+00 -4.04670447E+00
Nuclear charges                            R   N=          15
  6.00000000E+00  8.00000000E+00  8.00000000E+00  6.00000000E+00  6.00000000E+00
  8.00000000E+00  6.00000000E+00  8.00000000E+00  6.00000000E+00  1.00000000E+00
  1.00000000E+00  1.00000000E+00  1.00000000E+00  1.00000000E+00  1.00000000E+00
Number of basis functions                  I              183
Number of contracted shells                I               57
Number of primitive shells                 I              132
Highest angular momentum                   I                2
Largest degree of contraction              I                6
Shell types                                I   N=          57
           0          -1          -1          -1           2           0
          -1          -1          -1           2           0          -1
          -1          -1           2           0          -1          -1
          -1           2           0          -1          -1          -1
           2           0          -1          -1          -1           2
           0          -1          -1          -1           2           0
          -1          -1          -1           2           0          -1
          -1          -1           2           0           0           0
           0           0           0           0           0           0
           0           0           0
Number of primitives per shell             I   N=          57
           6           3           1           1           1           6
           3           1           1           1           6           3
           1           1           1           6           3           1
           1           1           6           3           1           1
           1           6           3           1           1           1
           6           3           1           1           1           6
           3           1           1           1           6           3
           1           1           1           3           1           3
           1           3           1           3           1           3
           1           3           1
Shell to atom map                          I   N=          57
           1           1           1           1           1           2
           2           2           2           2           3           3
           3           3           3           4           4           4
           4           4           5           5           5           5
           5           6           6           6           6           6
           7           7           7           7           7           8
           8           8           8           8           9           9
           9           9           9          10          10          11
          11          12          12          13          13          14
          14          15          15
Primitive exponents                        R   N=         132
  3.04752490E+03  4.57369510E+02  1.03948690E+02  2.92101550E+01  9.28666300E+00
  3.16392700E+00  7.86827240E+00  1.88128850E+00  5.44249300E-01  1.68714400E-01
  4.38000000E-02  8.00000000E-01  5.48467170E+03  8.25234950E+02  1.88046960E+02
  5.29645000E+01  1.68975700E+01  5.79963530E+00  1.55396160E+01  3.59993360E+00
  1.01376180E+00  2.70005800E-01  8.45000000E-02  8.00000000E-01  5.48467170E+03
  8.25234950E+02  1.88046960E+02  5.29645000E+01  1.68975700E+01  5.79963530E+00
  1.55396160E+01  3.59993360E+00  1.01376180E+00  2.70005800E-01  8.45000000E-02
  8.00000000E-01  3.04752490E+03  4.57369510E+02  1.03948690E+02  2.92101550E+01
  9.28666300E+00  3.16392700E+00  7.86827240E+00  1.88128850E+00  5.44249300E-01
  1.68714400E-01  4.38000000E-02  8.00000000E-01  3.04752490E+03  4.57369510E+02
  1.03948690E+02  2.92101550E+01  9.28666300E+00  3.16392700E+00  7.86827240E+00
  1.88128850E+00  5.44249300E-01  1.68714400E-01  4.38000000E-02  8.00000000E-01
  5.48467170E+03  8.25234950E+02  1.88046960E+02  5.29645000E+01  1.68975700E+01
  5.79963530E+00  1.55396160E+01  3.59993360E+00  1.01376180E+00  2.70005800E-01
  8.45000000E-02  8.00000000E-01  3.04752490E+03  4.57369510E+02  1.03948690E+02
  2.92101550E+01  9.28666300E+00  3.16392700E+00  7.86827240E+00  1.88128850E+00
  5.44249300E-01  1.68714400E-01  4.38000000E-02  8.00000000E-01  5.48467170E+03
  8.25234950E+02  1.88046960E+02  5.29645000E+01  1.68975700E+01  5.79963530E+00
  1.55396160E+01  3.59993360E+00  1.01376180E+00  2.70005800E-01  8.45000000E-02
  8.00000000E-01  3.04752490E+03  4.57369510E+02  1.03948690E+02  2.92101550E+01
  9.28666300E+00  3.16392700E+00  7.86827240E+00  1.88128850E+00  5.44249300E-01
  1.68714400E-01  4.38000000E-02  8.00000000E-01  1.87311370E+01  2.82539370E+00
  6.40121700E-01  1.61277800E-01  1.87311370E+01  2.82539370E+00  6.40121700E-01
  1.61277800E-01  1.87311370E+01  2.82539370E+00  6.40121700E-01  1.61277800E-01
  1.87311370E+01  2.82539370E+00  6.40121700E-01  1.61277800E-01  1.87311370E+01
  2.82539370E+00  6.40121700E-01  1.61277800E-01  1.87311370E+01  2.82539370E+00
  6.40121700E-01  1.61277800E-01
Contraction coefficients                   R   N=         132
  3.17779390E-03  2.43133190E-02  1.19238892E-01  4.02155213E-01  8.10498179E-01
  6.27542848E-01 -1.19332409E-01 -1.60854212E-01  1.14345648E+00  1.00000000E+00
  1.00000000E+00  1.00000000E+00  3.17155790E-03  2.41622794E-02  1.18550378E-01
  4.03072948E-01  8.14398079E-01  6.20976348E-01 -1.10777504E-01 -1.48026305E-01
  1.13076704E+00  1.00000000E+00  1.00000000E+00  1.00000000E+00  3.17155790E-03
  2.41622794E-02  1.18550378E-01  4.03072948E-01  8.14398079E-01  6.20976348E-01
 -1.10777504E-01 -1.48026305E-01  1.13076704E+00  1.00000000E+00  1.00000000E+00
  1.00000000E+00  3.17779390E-03  2.43133190E-02  1.19238892E-01  4.02155213E-01
  8.10498179E-01  6.27542848E-01 -1.19332409E-01 -1.60854212E-01  1.14345648E+00
  1.00000000E+00  1.00000000E+00  1.00000000E+00  3.17779390E-03  2.43133190E-02
  1.19238892E-01  4.02155213E-01  8.10498179E-01  6.27542848E-01 -1.19332409E-01
 -1.60854212E-01  1.14345648E+00  1.00000000E+00  1.00000000E+00  1.00000000E+00
  3.17155790E-03  2.41622794E-02  1.18550378E-01  4.03072948E-01  8.14398079E-01
  6.20976348E-01 -1.10777504E-01 -1.48026305E-01  1.13076704E+00  1.00000000E+00
  1.00000000E+00  1.00000000E+00  3.17779390E-03  2.43133190E-02  1.19238892E-01
  4.02155213E-01  8.10498179E-01  6.27542848E-01 -1.19332409E-01 -1.60854212E-01
  1.14345648E+00  1.00000000E+00  1.00000000E+00  1.00000000E+00  3.17155790E-03
  2.41622794E-02  1.18550378E-01  4.03072948E-01  8.14398079E-01  6.20976348E-01
 -1.10777504E-01 -1.48026305E-01  1.13076704E+00  1.00000000E+00  1.00000000E+00
  1.00000000E+00  3.17779390E-03  2.43133190E-02  1.19238892E-01  4.02155213E-01
  8.10498179E-01  6.27542848E-01 -1.19332409E-01 -1.60854212E-01  1.14345648E+00
  1.00000000E+00  1.00000000E+00  1.00000000E+00  5.80143482E-02  4.06558998E-01
  1.40946902E+00  1.73205081E+00  5.80143482E-02  4.06558998E-01  1.40946902E+00
  1.73205081E+00  5.80143482E-02  4.06558998E-01  1.40946902E+00  1.73205081E+00
  5.80143482E-02  4.06558998E-01  1.40946902E+00  1.73205081E+00  5.80143482E-02
  4.06558998E-01  1.40946902E+00  1.73205081E+00  5.80143482E-02  4.06558998E-01
  1.40946902E+00  1.73205081E+00
P(S=P) Contraction coefficients            R   N=         132
  0.00000000E+00  0.00000000E+00  0.00000000E+00  0.00000000E+00  0.00000000E+00
  0.00000000E+00  1.19509939E-01  5.48062410E-01  1.28917971E+00  1.73205081E+00
  1.73205081E+00  0.00000000E+00  0.00000000E+00  0.00000000E+00  0.00000000E+00
  0.00000000E+00  0.00000000E+00  0.00000000E+00  1.22757888E-01  5.88469108E-01
  1.25947563E+00  1.73205081E+00  1.73205081E+00  0.00000000E+00  0.00000000E+00
  0.00000000E+00  0.00000000E+00  0.00000000E+00  0.00000000E+00  0.00000000E+00
  1.22757888E-01  5.88469108E-01  1.25947563E+00  1.73205081E+00  1.73205081E+00
  0.00000000E+00  0.00000000E+00  0.00000000E+00  0.00000000E+00  0.00000000E+00
  0.00000000E+00  0.00000000E+00  1.19509939E-01  5.48062410E-01  1.28917971E+00
  1.73205081E+00  1.73205081E+00  0.00000000E+00  0.00000000E+00  0.00000000E+00
  0.00000000E+00  0.00000000E+00  0.00000000E+00  0.00000000E+00  1.19509939E-01
  5.48062410E-01  1.28917971E+00  1.73205081E+00  1.73205081E+00  0.00000000E+00
  0.00000000E+00  0.00000000E+00  0.00000000E+00  0.00000000E+00  0.00000000E+00
  0.00000000E+00  1.22757888E-01  5.88469108E-01  1.25947563E+00  1.73205081E+00
  1.73205081E+00  0.00000000E+00  0.00000000E+00  0.00000000E+00  0.00000000E+00
  0.00000000E+00  0.00000000E+00  0.00000000E+00  1.19509939E-01  5.48062410E-01
  1.28917971E+00  1.73205081E+00  1.73205081E+00  0.00000000E+00  0.00000000E+00
  0.00000000E+00  0.00000000E+00  0.00000000E+00  0.00000000E+00  0.00000000E+00
  1.22757888E-01  5.88469108E-01  1.25947563E+00  1.73205081E+00  1.73205081E+00
  0.00000000E+00  0.00000000E+00  0.00000000E+00  0.00000000E+00  0.00000000E+00
  0.00000000E+00  0.00000000E+00  1.19509939E-01  5.48062410E-01  1.28917971E+00
  1.73205081E+00  1.73205081E+00  0.00000000E+00  0.00000000E+00  0.00000000E+00
  0.00000000E+00  0.00000000E+00  0.00000000E+00  0.00000000E+00  0.00000000E+00
  0.00000000E+00  0.00000000E+00  0.00000000E+00  0.00000000E+00  0.00000000E+00
  0.00000000E+00  0.00000000E+00  0.00000000E+00  0.00000000E+00  0.00000000E+00
  0.00000000E+00  0.00000000E+00  0.00000000E+00  0.00000000E+00  0.00000000E+00
  0.00000000E+00  0.00000000E+00
Coordinates of each shell                  R   N=         171
 -2.35795309E+00 -9.63419137E-01  3.90732592E-01 -2.35795309E+00 -9.63419137E-01
  3.90732592E-01 -2.35795309E+00 -9.63419137E-01  3.90732592E-01 -2.35795309E+00
 -9.63419137E-01  3.90732592E-01 -2.35795309E+00 -9.63419137E-01  3.90732592E-01
 -4.44766121E+00 -5.35162673E-01 -6.88803643E-01 -4.44766121E+00 -5.35162673E-01
 -6.88803643E-01 -4.44766121E+00 -5.35162673E-01 -6.88803643E-01 -4.44766121E+00
 -5.35162673E-01 -6.88803643E-01 -4.44766121E+00 -5.35162673E-01 -6.88803643E-01
 -1.77454500E+00 -2.94684492E+00  1.61603181E+00 -1.77454500E+00 -2.94684492E+00
  1.61603181E+00 -1.77454500E+00 -2.94684492E+00  1.61603181E+00 -1.77454500E+00
 -2.94684492E+00  1.61603181E+00 -1.77454500E+00 -2.94684492E+00  1.61603181E+00
 -2.27182906E-01  1.21601217E+00  2.94869875E-01 -2.27182906E-01  1.21601217E+00
  2.94869875E-01 -2.27182906E-01  1.21601217E+00  2.94869875E-01 -2.27182906E-01
  1.21601217E+00  2.94869875E-01 -2.27182906E-01  1.21601217E+00  2.94869875E-01
 -4.00481474E-01  2.58913999E+00 -2.37915262E+00 -4.00481474E-01  2.58913999E+00
 -2.37915262E+00 -4.00481474E-01  2.58913999E+00 -2.37915262E+00 -4.00481474E-01
  2.58913999E+00 -2.37915262E+00 -4.00481474E-01  2.58913999E+00 -2.37915262E+00
 -4.23373506E-01  2.89486741E+00  2.16506083E+00 -4.23373506E-01  2.89486741E+00
  2.16506083E+00 -4.23373506E-01  2.89486741E+00  2.16506083E+00 -4.23373506E-01
  2.89486741E+00  2.16506083E+00 -4.23373506E-01  2.89486741E+00  2.16506083E+00
  2.36688702E+00 -2.06430788E-01  1.50118749E-01  2.36688702E+00 -2.06430788E-01
  1.50118749E-01  2.36688702E+00 -2.06430788E-01  1.50118749E-01  2.36688702E+00
 -2.06430788E-01  1.50118749E-01  2.36688702E+00 -2.06430788E-01  1.50118749E-01
  4.23399902E+00  3.01961643E-01  1.43229420E+00  4.23399902E+00  3.01961643E-01
  1.43229420E+00  4.23399902E+00  3.01961643E-01  1.43229420E+00  4.23399902E+00
  3.01961643E-01  1.43229420E+00  4.23399902E+00  3.01961643E-01  1.43229420E+00
  2.67541681E+00 -2.31471735E+00 -1.84754963E+00  2.67541681E+00 -2.31471735E+00
 -1.84754963E+00  2.67541681E+00 -2.31471735E+00 -1.84754963E+00  2.67541681E+00
 -2.31471735E+00 -1.84754963E+00  2.67541681E+00 -2.31471735E+00 -1.84754963E+00
  9.31272973E-01 -2.72893941E+00 -2.86897484E+00  9.31272973E-01 -2.72893941E+00
 -2.86897484E+00  3.29321682E+00 -4.03773275E+00 -8.74852790E-01  3.29321682E+00
 -4.03773275E+00 -8.74852790E-01  4.16363283E+00 -1.74651694E+00 -3.18732122E+00
  4.16363283E+00 -1.74651694E+00 -3.18732122E+00  1.02110823E+00  4.10673382E+00
 -2.41808032E+00  1.02110823E+00  4.10673382E+00 -2.41808032E+00 -2.29801375E+00
  3.40716628E+00 -2.45484572E+00 -2.29801375E+00  3.40716628E+00 -2.45484572E+00
 -1.58689637E-01  1.35720792E+00 -4.04670447E+00 -1.58689637E-01  1.35720792E+00
 -4.04670447E+00
SCF Energy                                 R     -4.950365440708025E+02
Number of independent functions            I              183
Alpha MO coefficients                      R   N=       33489
  1.75815937E-05  8.85663496E-05  1.94222325E-05  1.36354077E-06 -1.61413763E-05
 -5.56838983E-04 -3.85764670E-04  1.26906562E-04 -8.32390119E-05 -5.19002735E-03
 -1.05225677E-03 -6.87197233E-04  3.76594563E-04  4.08420598E-06  1.61619693E-05
  2.78811657E-05  4.10514420E-06 -5.49124545E-07  2.01093899E-06 -1.30204439E-06
 -1.56529805E-05 -1.55237383E-07 -2.29246243E-06  8.57683293E-07  4.10423960E-05
 -2.20920366E-05  6.50378781E-06 -1.01290754E-05 -5.14614888E-04 -1.45525015E-04
 -1.24532408E-04 -1.75702676E-04 -1.27015545E-05 -2.13912738E-05 -1.83402923E-05
 -3.86067664E-06 -4.97396862E-06 -1.01870568E-06 -2.24785007E-06 -8.24644685E-07
 -1.54035520E-06 -4.45018337E-06 -1.18009542E-06  1.07763690E-04 -1.25189680E-05
  8.67072951E-05 -4.22754429E-05  3.24642490E-04 -1.40102114E-04  2.74572653E-05
 -1.07544820E-04 -1.34763136E-05  9.69410226E-06  4.91171130E-06  6.62733150E-06
 -7.74856439E-07 -6.60128398E-06  8.09511515E-07 -3.07965467E-06 -1.18726031E-05
  8.50740615E-06  5.20525286E-06  7.29942466E-05  6.25642738E-05  2.17412971E-04
  2.65652372E-04  1.48679669E-02 -1.29555493E-03 -4.53546688E-04 -3.39931009E-03
 -5.27210167E-06  3.53026590E-05  1.85073401E-05 -9.34908958E-06 -2.43473274E-05
  5.36609840E-06  9.80813787E-06  5.52443989E-05  1.47534711E-06 -2.17788878E-05
  8.40531839E-06 -3.52057846E-04 -1.39291799E-04  1.84003767E-04 -1.69176915E-04
 -8.51298715E-03 -4.30875739E-04  1.07412177E-03 -1.92151546E-03  2.25268256E-05
 -3.91491767E-06 -2.08800713E-06  2.05287877E-05 -1.79220911E-06  6.15805729E-07
  6.47760387E-06  5.09054583E-05  6.21821267E-06 -1.09632542E-05 -8.57826177E-06
 -3.92864094E-04  4.54649360E-05  9.19965502E-05  1.20384886E-04 -8.20152691E-04
  1.81664478E-04 -3.03789548E-05  1.51408626E-04  8.47961282E-05  3.80095621E-05
  2.01479021E-05 -2.37200548E-05 -3.11183483E-06 -1.70339125E-05 -1.25135191E-05
  3.97718736E-04  2.46927058E-04  6.64266262E-05  1.67490857E-04 -4.59268408E-04
 -8.95043249E-04 -5.60356731E-04 -9.35708863E-04  5.20244214E-03  1.93602410E-03
  3.28546795E-04  9.85288831E-04 -3.35619965E-04 -1.58814171E-04 -2.25625103E-04
 -5.24110401E-05 -1.37081505E-04 -2.04190352E-05  9.92549684E-01  2.50845890E-02
 -8.74890536E-04 -3.06243458E-04 -6.84475758E-04  1.63712776E-02  4.83558353E-05
  1.36593339E-04  1.50615808E-04 -7.94410852E-03  3.31084106E-04 -1.55566795E-04
  8.84350850E-05 -8.63750956E-03 -8.69914342E-03 -8.68021372E-03  9.70854766E-06
  4.17392493E-05  1.59643879E-05  1.63463020E-05  1.59716184E-04 -3.05566305E-05
 -1.25397289E-05 -3.36703751E-05 -7.38424882E-04  4.17923122E-04 -2.36553642E-04
 -2.30532151E-05 -1.78848335E-03 -5.44820659E-04 -3.51714913E-04 -5.19291088E-04
 -1.93744241E-05 -1.42727416E-05 -2.89620753E-05 -1.17857206E-05 -3.24881530E-05
 -4.98920283E-05  6.86803318E-05  4.32221342E-05  1.02796161E-05 -7.79675466E-06
  1.25855939E-05  1.49765824E-05 -2.88080950E-05  5.22584258E-05  6.93228050E-06
 -1.65569549E-04  1.13384350E-05 -4.61613442E-05 -2.68132833E-05  3.46358780E-04
 -3.21340711E-04  6.10962790E-05 -1.65507692E-04  2.84473701E-04  5.95703668E-04
 -4.31869177E-04  5.47467504E-04  8.43707847E-03 -3.45227823E-04  2.45741260E-03
 -1.88491118E-03 -1.93598551E-04 -1.39792688E-04 -1.82511866E-04  3.56613380E-05
 -2.81299113E-05  4.06564736E-06  9.92558804E-01  2.51104813E-02  8.81488762E-04
 -2.01463346E-04  4.63113689E-04  1.58911460E-02 -2.53964000E-04  1.95147655E-04
 -2.55190855E-04 -8.34255102E-03 -6.20370298E-04 -1.65010907E-04  7.44510262E-05
 -8.68525645E-03 -8.66152241E-03 -8.67868498E-03  2.69767598E-05 -2.20185352E-05
  1.34917169E-05 -1.60751643E-03  6.98523738E-05 -5.95524583E-06  1.19405579E-05
 -5.31287733E-06 -5.15778198E-04  6.53396926E-05 -9.31842599E-05  5.51454283E-05
 -4.13920522E-04 -4.77895859E-04 -3.35740883E-04  1.08810678E-04  4.80305949E-06
  9.02690870E-05  4.34841855E-05  6.47245281E-05 -5.95420623E-05  1.45055554E-05
 -9.68769163E-07  3.37463718E-05  1.51310148E-05 -2.63507195E-05 -1.07964710E-05
 -1.47468049E-05 -1.66904743E-04  1.27244351E-04 -3.15295722E-04 -7.50638919E-03
  4.99755489E-04 -1.45303146E-05 -3.03912367E-04 -3.76504267E-05  2.08607392E-06
 -1.18473337E-05 -1.33939351E-05 -8.22105360E-06 -1.84437138E-05  1.57691488E-05
  3.60567493E-05 -1.46131074E-05 -1.97890891E-06  1.47660661E-05 -5.22444351E-04
 -4.96324135E-05 -1.07166409E-04 -2.01910456E-04 -4.80709264E-04  3.15113257E-04
  3.48505240E-04  1.26616898E-04  4.25314503E-05  4.24762872E-05  2.59438376E-05
  2.66847850E-05 -1.17801372E-05  9.04636119E-06 -1.62401020E-05 -1.93801908E-05
  1.16425819E-05  2.00893638E-05  1.34559078E-05 -1.41255691E-06 -2.72681478E-05
 -1.51317022E-04 -6.16821003E-05  4.73891478E-04  6.33126846E-05  1.93466368E-04
 -7.08562435E-05  4.69241299E-06 -5.90188481E-06 -1.43212399E-05  4.51415793E-06
  1.23995425E-05  2.67231317E-05  3.16037593E-06  1.69826211E-05 -1.54072528E-05
  8.65154360E-07 -9.33740006E-06  4.44351672E-05  1.92880927E-04  3.27718048E-05
  1.25206679E-04  4.83965966E-03 -1.94337912E-03  2.27916547E-04  4.86992784E-04
 -1.26564659E-08  6.26201302E-06  8.00219034E-06 -8.45077881E-06 -3.04645396E-06
  1.06147908E-05 -1.20775460E-05 -3.19793142E-05  8.81279025E-06  3.85973815E-06
 -7.26822303E-06  1.13596145E-04 -1.99954488E-05 -7.38528839E-06  5.23491142E-05
 -8.13281885E-04  4.23876281E-04  9.63604569E-05 -4.26859229E-05 -2.46760798E-05
 -2.87024769E-05 -2.41024757E-05 -1.12586983E-06 -1.69976956E-06  4.63198992E-06
  6.37041332E-06  3.05447560E-05  9.45867929E-07  1.22023258E-05  7.92789844E-06
 -1.06436838E-04 -1.11172492E-06 -8.16296738E-05 -5.21237566E-05 -1.23771342E-03
  7.84809185E-04 -1.28858748E-04 -9.38983854E-05  5.57338758E-06  6.96694309E-06
  8.33426239E-06  2.27824168E-06  2.89234172E-06 -4.05364279E-07  2.59893629E-06
 -1.86253317E-04  1.98318711E-09 -1.37611404E-05 -3.49211392E-07  3.25136868E-05
  3.39232834E-05  6.79982702E-05  2.65564968E-05  2.84571003E-04 -1.21317566E-05
 -1.23262537E-04 -3.11511609E-05  3.26812081E-04  9.41956272E-05 -3.24055381E-04
  2.02793847E-04  2.79793916E-04 -4.82878605E-04  2.70330232E-04 -2.55282092E-04
  1.29619720E-02  4.26001865E-03 -4.28922814E-04  1.04617089E-03 -1.56239936E-04
 -1.53781942E-04 -1.79268778E-04  2.46537632E-05 -6.96159615E-06  1.38133277E-05
  1.63337262E-03  1.18430205E-04  2.20258335E-06  2.09903807E-06  1.58451236E-05
 -2.38280581E-04  3.75875757E-05  3.24527511E-05 -8.91132123E-05 -3.33313264E-04
 -6.15333778E-04 -3.95938887E-05  8.78911224E-05  4.60269688E-05 -2.84992195E-05
 -1.32905554E-05  7.21060130E-05 -2.60713012E-05  6.27309742E-05  9.92556482E-01
  2.51019389E-02 -2.76833854E-04  8.19749497E-04 -5.28714477E-04  1.58405877E-02
  3.37823101E-04 -3.75625937E-04  2.77254137E-04 -9.07597766E-03 -6.12839796E-04
 -3.69051170E-04  2.28395433E-04 -8.67713579E-03 -8.70695341E-03 -8.69139526E-03
  3.76991412E-05 -1.88757679E-05  3.69250995E-05 -6.23464836E-06  1.97493114E-05
  1.48781272E-05  7.34460564E-07 -8.83608251E-06  2.60999481E-04  8.00437213E-05
 -5.44241157E-04 -2.74164090E-04 -1.50213751E-02 -1.56510504E-03  4.66910882E-03
 -2.21036314E-03 -4.04739316E-06 -5.52092647E-05 -2.31495780E-05 -1.41901179E-05
  1.88124826E-06  6.99147771E-06  1.81131790E-06  1.25097519E-05 -4.74805814E-06
  5.65659193E-06  5.61911141E-06 -1.40467401E-04  5.81602837E-05  1.25205221E-04
 -4.16936089E-05 -4.07157832E-03 -3.90703014E-04  3.25039617E-04 -1.03378700E-03
  3.59032999E-06 -1.98324923E-05  1.67489373E-05 -3.55160005E-06  8.46825965E-06
  1.62578983E-05 -1.69481518E-05 -1.97834835E-05  1.25541826E-05  1.15150291E-05
  1.45230732E-05  7.94213698E-05 -5.94701395E-05 -8.84778506E-05 -1.61041854E-04
  8.98417731E-04  2.20030621E-04 -2.80338555E-04  7.92858023E-06 -2.76172783E-05
  2.13487853E-05  4.17958925E-06  8.30211123E-06 -4.26279553E-06  8.97285015E-06
  1.29243121E-05  1.92133712E-05 -2.72763777E-05 -1.91817429E-05 -4.68540589E-06
  1.26989726E-04  7.17342324E-04  4.56782159E-05  5.08627627E-04  1.37960077E-02
 -3.77206956E-03  8.13565509E-04 -2.12107050E-04  5.76377606E-05  1.87708726E-05
  5.33190783E-05  2.97910761E-05  2.48331522E-05 -5.70159152E-06  1.33847182E-05
  6.25940396E-05  1.16400099E-05 -6.63915680E-07 -1.76463753E-06 -5.20807115E-04
  1.67699378E-04  9.73784759E-05  1.40183617E-04 -1.21851957E-03  5.97009016E-04
  5.62327255E-06  1.66147493E-04  3.17200878E-06  2.65241432E-05  2.40689799E-05
 -7.83829738E-06 -2.40239156E-05 -9.33393647E-06 -9.74154641E-07 -4.35857773E-05
 -1.48014768E-05  2.36239302E-05  2.14075086E-05  1.55991440E-04 -2.51827125E-04
 -5.62541025E-05  3.67079123E-05 -3.42414545E-03  1.16443444E-03 -3.11716888E-04
 -4.33815646E-04  4.05570641E-05  1.00896776E-05  4.80972999E-06 -9.28334356E-06
 -3.99417749E-05 -9.20217501E-06  6.35820906E-06 -2.40387749E-04 -2.32514239E-05
 -8.30393862E-06  8.65731874E-06  3.75648262E-05 -1.44086439E-05  1.84003819E-05
  2.16563850E-06  1.12958021E-04  3.14532157E-06 -2.55592657E-05  8.13975667E-06
  8.74435016E-05  3.07101633E-05  1.58123617E-05 -2.12211593E-05 -6.05125425E-04
 -1.66392562E-04 -5.55852115E-05  2.81341956E-04 -8.16497449E-03 -1.32222974E-03
 -1.45330310E-03 -3.79701651E-04 -1.22981724E-05 -2.94222448E-05 -2.67742861E-06
 -1.10415150E-05 -2.13457901E-05 -8.78767227E-06  1.11050664E-05 -2.18073360E-05
 -1.35247135E-05 -1.18292104E-06 -4.21337270E-06  8.89479453E-05  1.42599948E-04
 -1.98935928E-05  2.61563667E-05  5.67407936E-05 -1.65628536E-04 -4.09308783E-05
 -3.41753694E-05  1.57291994E-05 -3.43483483E-06 -2.24355176E-05  5.04082184E-06
  1.81350005E-05  1.96721517E-05  1.70166107E-05  5.73717187E-07 -1.16248952E-06
 -1.22706863E-05  6.94086963E-06 -5.71931281E-05 -3.91962222E-06  7.71699157E-05
 -7.55159249E-05  4.57182305E-05 -4.16418075E-05 -2.25638094E-04  4.28109171E-05
 -1.67978231E-05  2.76065831E-05  1.28887809E-05  1.06918506E-05  8.43449314E-06
 -6.42863421E-06 -4.32328465E-05  1.59026533E-04 -3.04928984E-05  2.73059711E-04
  3.04159734E-04  5.76103091E-04  8.48912927E-05 -2.23931713E-04 -2.61384405E-04
  3.79435421E-02  2.37919391E-03 -3.96853088E-04  6.56326186E-04 -1.04365096E-04
 -9.04029128E-06  2.03877994E-05 -1.16730100E-05 -6.89284335E-06  1.33282529E-04
  1.70913920E-05  1.48053801E-04 -3.55829854E-07 -2.74569677E-05 -9.53866234E-06
 -5.55384943E-04 -3.97448648E-05  3.38146094E-04 -6.24616125E-05 -8.39875238E-03
 -1.76209816E-04  5.64917732E-04 -2.19863616E-03  2.79769282E-05  4.49488160E-06
 -6.41100612E-05  4.63100335E-06  9.55254883E-07 -1.29039904E-05  9.92564818E-01
  2.50130274E-02  8.42877400E-05 -6.58325222E-04 -7.68320843E-04  1.59653630E-02
 -6.07786524E-05  5.08433645E-04  6.17955782E-04 -1.15052851E-02 -9.22443761E-05
  4.23982059E-04  4.00623378E-04 -8.65077622E-03 -8.74839351E-03 -8.77505257E-03
  1.35348305E-05  1.79627830E-05 -1.23015499E-04  2.03902274E-05  1.35673016E-04
 -1.65974796E-05  6.28906126E-06  4.12094103E-07 -6.55963213E-04  2.53596977E-04
 -1.81167295E-04 -3.96357840E-05 -1.19354348E-02  4.16424674E-03 -3.97344736E-03
 -2.45879605E-03  1.70305682E-05 -3.18585228E-06  1.56280885E-05  2.43847356E-05
  1.34193286E-05 -3.27404093E-05  1.16818648E-05 -8.26707651E-06 -5.95354067E-06
  1.13479357E-05  1.18704774E-05 -2.27797640E-05 -6.19729911E-05  1.71685920E-05
 -3.13826898E-05  2.37625644E-04 -1.71327680E-04  2.25270691E-04  2.93632367E-04
  3.42282194E-05  1.25464875E-05 -1.88398728E-06 -3.26151398E-05 -2.07067600E-05
  5.52436899E-06  1.44906920E-05  5.35088899E-05 -1.12674146E-05  2.87810251E-05
  1.17485079E-05 -3.18864336E-04  8.18961979E-05 -1.80227210E-04 -5.71945509E-05
 -3.57762123E-03 -4.27515928E-04 -5.36055766E-04 -5.64991720E-04  1.65658360E-05
  2.80934383E-05  3.17294846E-05  1.18044864E-05  4.12809164E-06  1.31927479E-06
  2.34418767E-05 -1.28299890E-04 -3.34559000E-06 -1.94848285E-05 -1.51903147E-06
  5.56693266E-05  2.05642814E-05 -1.55284884E-04  1.17203534E-05 -9.32348928E-05
  6.10768510E-05 -1.29434430E-04 -9.19690578E-05 -1.24949685E-04 -4.31666100E-05
 -5.87242036E-06 -3.31196074E-05 -1.56186714E-03  1.25637026E-03 -1.18773295E-03
  1.59727195E-03 -1.53617632E-02 -2.47458755E-03 -1.93387573E-03  1.41051785E-03
 -7.17931361E-05 -2.38046021E-05 -1.05830150E-04 -1.12904857E-05 -7.33805251E-05
  2.50360946E-05 -5.21948598E-05 -2.71767033E-04 -9.40717268E-06 -2.02309033E-06
 -3.28763043E-05  2.02698459E-03  7.24362130E-04 -4.74560892E-05  3.62638773E-04
 -5.56019049E-04 -5.66421456E-04 -3.65056925E-04 -7.34033816E-05 -3.94311740E-05
 -1.44637407E-04 -1.47121001E-04 -1.82376088E-05  5.79165685E-05  2.42688230E-05
 -3.46550370E-06  1.01012519E-05 -6.31620464E-05 -1.98850056E-05  3.65981464E-05
 -7.27641348E-04  5.71802290E-05 -1.63711171E-04 -8.36852691E-05 -6.60867402E-04
  1.00779810E-04 -5.21411717E-04  8.31883842E-05  2.93650624E-05 -4.94493848E-05
 -6.02591772E-05  1.60142984E-05 -2.43325530E-06 -8.29585444E-05  1.34090431E-03
 -2.88777360E-05  7.13584273E-05 -3.78285408E-05  4.35824583E-05  3.07433290E-03
  4.19421495E-04 -1.32336277E-03 -1.38174478E-03  5.66796006E-02  6.25430306E-04
 -7.86752150E-03 -9.16707259E-03 -2.74476837E-04 -1.58388592E-04 -1.42075515E-04
  1.05664959E-04 -3.98358854E-06 -9.71357237E-06 -7.66325681E-05 -2.54498412E-04
 -1.14665140E-04  5.21661982E-05 -6.25550464E-05  7.05764938E-05  1.00195457E-03
  3.45156067E-04 -3.94774720E-04 -1.57151256E-02 -1.75843505E-05  2.60072635E-03
 -2.90664559E-03 -4.67970251E-05 -8.16017941E-05 -8.89814572E-05 -7.15814939E-05
  7.11453515E-05  6.62616764E-06 -5.84289007E-05 -2.92270321E-04 -2.17534890E-05
  3.25999656E-05  8.64191372E-06  1.69918015E-03  7.55864553E-05 -2.49056897E-04
 -1.38508584E-04 -5.19382192E-03 -6.84275863E-04  1.56602428E-03  1.28113387E-03
 -1.40138753E-04 -1.48477837E-04 -1.60995368E-04 -3.51486841E-05 -1.01440639E-06
  5.10732783E-05  9.93209530E-01  4.98164001E-02  1.24936595E-03 -9.80284665E-05
  3.96270134E-04 -1.67042078E-02  2.91461240E-03  1.54693984E-03  3.16519704E-03
 -3.09499134E-02  6.06904637E-03  2.02035983E-03  4.34139201E-03 -8.12310002E-03
 -8.85713049E-03 -8.54318149E-03  1.96536623E-04  6.04363479E-04  2.21406495E-04
 -5.49036097E-05  6.94440449E-04  6.63491600E-05  9.44165235E-06  5.45179044E-05
 -4.25353504E-03  1.94285576E-03  5.32709091E-04  1.18940985E-03  4.18010607E-03
 -2.79142382E-03 -9.67207661E-04 -1.86639509E-03 -4.15418372E-05  4.82499315E-04
  2.66285883E-04 -2.02126336E-04 -4.86469897E-04 -1.82548475E-04  1.64994576E-03
 -9.14456733E-05  5.74272839E-07 -7.17575466E-06 -2.11395286E-05  5.32429897E-03
 -1.23221065E-03  1.28040199E-03  8.57674001E-04  1.04311447E-02 -1.16420520E-03
  1.36177157E-03  1.15544184E-03 -7.93225788E-05 -2.89226912E-04 -3.40659210E-04
 -2.17906390E-05 -2.41635638E-05 -2.42317103E-04 -8.90975183E-05 -1.90001736E-03
 -1.46070452E-04 -2.57614020E-04 -1.58009959E-04 -1.90404586E-04 -7.03273208E-05
 -1.14136338E-03  7.35292824E-05 -1.55356586E-04  8.12928269E-06 -1.13929967E-03
  9.93216195E-01  4.92556806E-02 -5.13417433E-04 -5.32651583E-04  3.89805271E-05
 -1.58137281E-02 -1.71341722E-03 -7.57842233E-04 -2.29665548E-04 -9.17622157E-03
 -2.06026065E-03 -1.34283045E-03  5.31982608E-04 -8.27738346E-03 -8.41629495E-03
 -8.56912118E-03 -3.43613750E-04  4.81224485E-04 -4.48402214E-04 -4.50119182E-05
  4.32118371E-04 -7.74873300E-05  2.09044294E-05 -4.26836578E-05 -1.95689074E-03
 -9.73243263E-04  2.30993323E-04 -5.23431560E-04  3.90978592E-03  2.09084833E-03
  2.29773033E-04  6.84704493E-04 -1.30631426E-04  3.58778489E-04  2.81027369E-04
  1.03749542E-04 -3.38433179E-04  9.93630341E-05 -5.35795002E-05  3.43643410E-04
  3.29484433E-05 -8.05947385E-05  4.16695639E-05 -1.09488378E-03  2.88931493E-04
 -6.13985096E-04  4.62018472E-04  4.15123464E-03 -1.96863821E-04  2.07310092E-03
 -1.05593369E-03  2.72204752E-04 -9.57646282E-05  2.29846570E-04  1.42085767E-04
 -1.25862866E-04  3.52183440E-04  1.82581101E-03 -4.44085219E-05 -2.47583581E-05
  1.50950050E-05 -1.12927052E-05  3.13158220E-03 -6.85313199E-04 -7.48462930E-04
  5.89947795E-04  1.92753228E-02  1.28365141E-03 -3.72795209E-04 -2.72279190E-03