Jobname.Temp
FOPT      R                             6-31+G(d)           
Number of atoms                            I               15
Charge                                     I               -2
Multiplicity                               I                1
Number of electrons                        I               70
Number of alpha electrons                  I               35
Number of beta electrons                   I               35
Atomic numbers                             I   N=          15
           6           8           8           6           6           8
           6           8           6           1           1           1
           1           1           1
Current cartesian coordinates              R   N=          45
  2.42452356E+00  6.57641216E-01  3.32124110E-01  2.82212761E+00  2.89424299E+00
 -3.33382599E-01  4.14394509E+00 -4.80804151E-01  1.69329452E+00  6.42055630E-03
 -9.46348001E-01 -5.04853618E-01 -2.33444963E-01 -1.37316223E+00 -3.34299108E+00
  2.72364382E-01 -3.34847406E+00  6.33240771E-01 -2.35399246E+00  2.94470319E-01
  5.40308209E-01 -3.85311743E+00 -8.94194937E-01  1.97574944E+00 -2.85228991E+00
  2.90123883E+00 -1.50381481E-01 -1.85062255E+00  3.27510868E+00 -1.86918985E+00
 -1.60596563E+00  3.88183728E+00  1.13817338E+00 -4.96162900E+00  3.30386140E+00
 -3.66710994E-01 -2.07589896E+00 -2.17465467E+00 -4.06369641E+00  1.03809157E+00
 -3.14562389E+00 -3.38326261E+00  4.26166567E-01  2.90271580E-01 -4.45176740E+00
Nuclear charges                            R   N=          15
  6.00000000E+00  8.00000000E+00  8.00000000E+00  6.00000000E+00  6.00000000E+00
  8.00000000E+00  6.00000000E+00  8.00000000E+00  6.00000000E+00  1.00000000E+00
  1.00000000E+00  1.00000000E+00  1.00000000E+00  1.00000000E+00  1.00000000E+00
Number of basis functions                  I              183
Number of contracted shells                I               57
Number of primitive shells                 I              132
Highest angular momentum                   I                2
Largest degree of contraction              I                6
Shell types                                I   N=          57
           0          -1          -1          -1           2           0
          -1          -1          -1           2           0          -1
          -1          -1           2           0          -1          -1
          -1           2           0          -1          -1          -1
           2           0          -1          -1          -1           2
           0          -1          -1          -1           2           0
          -1          -1          -1           2           0          -1
          -1          -1           2           0           0           0
           0           0           0           0           0           0
           0           0           0
Number of primitives per shell             I   N=          57
           6           3           1           1           1           6
           3           1           1           1           6           3
           1           1           1           6           3           1
           1           1           6           3           1           1
           1           6           3           1           1           1
           6           3           1           1           1           6
           3           1           1           1           6           3
           1           1           1           3           1           3
           1           3           1           3           1           3
           1           3           1
Shell to atom map                          I   N=          57
           1           1           1           1           1           2
           2           2           2           2           3           3
           3           3           3           4           4           4
           4           4           5           5           5           5
           5           6           6           6           6           6
           7           7           7           7           7           8
           8           8           8           8           9           9
           9           9           9          10          10          11
          11          12          12          13          13          14
          14          15          15
Primitive exponents                        R   N=         132
  3.04752490E+03  4.57369510E+02  1.03948690E+02  2.92101550E+01  9.28666300E+00
  3.16392700E+00  7.86827240E+00  1.88128850E+00  5.44249300E-01  1.68714400E-01
  4.38000000E-02  8.00000000E-01  5.48467170E+03  8.25234950E+02  1.88046960E+02
  5.29645000E+01  1.68975700E+01  5.79963530E+00  1.55396160E+01  3.59993360E+00
  1.01376180E+00  2.70005800E-01  8.45000000E-02  8.00000000E-01  5.48467170E+03
  8.25234950E+02  1.88046960E+02  5.29645000E+01  1.68975700E+01  5.79963530E+00
  1.55396160E+01  3.59993360E+00  1.01376180E+00  2.70005800E-01  8.45000000E-02
  8.00000000E-01  3.04752490E+03  4.57369510E+02  1.03948690E+02  2.92101550E+01
  9.28666300E+00  3.16392700E+00  7.86827240E+00  1.88128850E+00  5.44249300E-01
  1.68714400E-01  4.38000000E-02  8.00000000E-01  3.04752490E+03  4.57369510E+02
  1.03948690E+02  2.92101550E+01  9.28666300E+00  3.16392700E+00  7.86827240E+00
  1.88128850E+00  5.44249300E-01  1.68714400E-01  4.38000000E-02  8.00000000E-01
  5.48467170E+03  8.25234950E+02  1.88046960E+02  5.29645000E+01  1.68975700E+01
  5.79963530E+00  1.55396160E+01  3.59993360E+00  1.01376180E+00  2.70005800E-01
  8.45000000E-02  8.00000000E-01  3.04752490E+03  4.57369510E+02  1.03948690E+02
  2.92101550E+01  9.28666300E+00  3.16392700E+00  7.86827240E+00  1.88128850E+00
  5.44249300E-01  1.68714400E-01  4.38000000E-02  8.00000000E-01  5.48467170E+03
  8.25234950E+02  1.88046960E+02  5.29645000E+01  1.68975700E+01  5.79963530E+00
  1.55396160E+01  3.59993360E+00  1.01376180E+00  2.70005800E-01  8.45000000E-02
  8.00000000E-01  3.04752490E+03  4.57369510E+02  1.03948690E+02  2.92101550E+01
  9.28666300E+00  3.16392700E+00  7.86827240E+00  1.88128850E+00  5.44249300E-01
  1.68714400E-01  4.38000000E-02  8.00000000E-01  1.87311370E+01  2.82539370E+00
  6.40121700E-01  1.61277800E-01  1.87311370E+01  2.82539370E+00  6.40121700E-01
  1.61277800E-01  1.87311370E+01  2.82539370E+00  6.40121700E-01  1.61277800E-01
  1.87311370E+01  2.82539370E+00  6.40121700E-01  1.61277800E-01  1.87311370E+01
  2.82539370E+00  6.40121700E-01  1.61277800E-01  1.87311370E+01  2.82539370E+00
  6.40121700E-01  1.61277800E-01
Contraction coefficients                   R   N=         132
  3.17779390E-03  2.43133190E-02  1.19238892E-01  4.02155213E-01  8.10498179E-01
  6.27542848E-01 -1.19332409E-01 -1.60854212E-01  1.14345648E+00  1.00000000E+00
  1.00000000E+00  1.00000000E+00  3.17155790E-03  2.41622794E-02  1.18550378E-01
  4.03072948E-01  8.14398079E-01  6.20976348E-01 -1.10777504E-01 -1.48026305E-01
  1.13076704E+00  1.00000000E+00  1.00000000E+00  1.00000000E+00  3.17155790E-03
  2.41622794E-02  1.18550378E-01  4.03072948E-01  8.14398079E-01  6.20976348E-01
 -1.10777504E-01 -1.48026305E-01  1.13076704E+00  1.00000000E+00  1.00000000E+00
  1.00000000E+00  3.17779390E-03  2.43133190E-02  1.19238892E-01  4.02155213E-01
  8.10498179E-01  6.27542848E-01 -1.19332409E-01 -1.60854212E-01  1.14345648E+00
  1.00000000E+00  1.00000000E+00  1.00000000E+00  3.17779390E-03  2.43133190E-02
  1.19238892E-01  4.02155213E-01  8.10498179E-01  6.27542848E-01 -1.19332409E-01
 -1.60854212E-01  1.14345648E+00  1.00000000E+00  1.00000000E+00  1.00000000E+00
  3.17155790E-03  2.41622794E-02  1.18550378E-01  4.03072948E-01  8.14398079E-01
  6.20976348E-01 -1.10777504E-01 -1.48026305E-01  1.13076704E+00  1.00000000E+00
  1.00000000E+00  1.00000000E+00  3.17779390E-03  2.43133190E-02  1.19238892E-01
  4.02155213E-01  8.10498179E-01  6.27542848E-01 -1.19332409E-01 -1.60854212E-01
  1.14345648E+00  1.00000000E+00  1.00000000E+00  1.00000000E+00  3.17155790E-03
  2.41622794E-02  1.18550378E-01  4.03072948E-01  8.14398079E-01  6.20976348E-01
 -1.10777504E-01 -1.48026305E-01  1.13076704E+00  1.00000000E+00  1.00000000E+00
  1.00000000E+00  3.17779390E-03  2.43133190E-02  1.19238892E-01  4.02155213E-01
  8.10498179E-01  6.27542848E-01 -1.19332409E-01 -1.60854212E-01  1.14345648E+00
  1.00000000E+00  1.00000000E+00  1.00000000E+00  5.80143482E-02  4.06558998E-01
  1.40946902E+00  1.73205081E+00  5.80143482E-02  4.06558998E-01  1.40946902E+00
  1.73205081E+00  5.80143482E-02  4.06558998E-01  1.40946902E+00  1.73205081E+00
  5.80143482E-02  4.06558998E-01  1.40946902E+00  1.73205081E+00  5.80143482E-02
  4.06558998E-01  1.40946902E+00  1.73205081E+00  5.80143482E-02  4.06558998E-01
  1.40946902E+00  1.73205081E+00
P(S=P) Contraction coefficients            R   N=         132
  0.00000000E+00  0.00000000E+00  0.00000000E+00  0.00000000E+00  0.00000000E+00
  0.00000000E+00  1.19509939E-01  5.48062410E-01  1.28917971E+00  1.73205081E+00
  1.73205081E+00  0.00000000E+00  0.00000000E+00  0.00000000E+00  0.00000000E+00
  0.00000000E+00  0.00000000E+00  0.00000000E+00  1.22757888E-01  5.88469108E-01
  1.25947563E+00  1.73205081E+00  1.73205081E+00  0.00000000E+00  0.00000000E+00
  0.00000000E+00  0.00000000E+00  0.00000000E+00  0.00000000E+00  0.00000000E+00
  1.22757888E-01  5.88469108E-01  1.25947563E+00  1.73205081E+00  1.73205081E+00
  0.00000000E+00  0.00000000E+00  0.00000000E+00  0.00000000E+00  0.00000000E+00
  0.00000000E+00  0.00000000E+00  1.19509939E-01  5.48062410E-01  1.28917971E+00
  1.73205081E+00  1.73205081E+00  0.00000000E+00  0.00000000E+00  0.00000000E+00
  0.00000000E+00  0.00000000E+00  0.00000000E+00  0.00000000E+00  1.19509939E-01
  5.48062410E-01  1.28917971E+00  1.73205081E+00  1.73205081E+00  0.00000000E+00
  0.00000000E+00  0.00000000E+00  0.00000000E+00  0.00000000E+00  0.00000000E+00
  0.00000000E+00  1.22757888E-01  5.88469108E-01  1.25947563E+00  1.73205081E+00
  1.73205081E+00  0.00000000E+00  0.00000000E+00  0.00000000E+00  0.00000000E+00
  0.00000000E+00  0.00000000E+00  0.00000000E+00  1.19509939E-01  5.48062410E-01
  1.28917971E+00  1.73205081E+00  1.73205081E+00  0.00000000E+00  0.00000000E+00
  0.00000000E+00  0.00000000E+00  0.00000000E+00  0.00000000E+00  0.00000000E+00
  1.22757888E-01  5.88469108E-01  1.25947563E+00  1.73205081E+00  1.73205081E+00
  0.00000000E+00  0.00000000E+00  0.00000000E+00  0.00000000E+00  0.00000000E+00
  0.00000000E+00  0.00000000E+00  1.19509939E-01  5.48062410E-01  1.28917971E+00
  1.73205081E+00  1.73205081E+00  0.00000000E+00  0.00000000E+00  0.00000000E+00
  0.00000000E+00  0.00000000E+00  0.00000000E+00  0.00000000E+00  0.00000000E+00
  0.00000000E+00  0.00000000E+00  0.00000000E+00  0.00000000E+00  0.00000000E+00
  0.00000000E+00  0.00000000E+00  0.00000000E+00  0.00000000E+00  0.00000000E+00
  0.00000000E+00  0.00000000E+00  0.00000000E+00  0.00000000E+00  0.00000000E+00
  0.00000000E+00  0.00000000E+00
Coordinates of each shell                  R   N=         171
  2.42452356E+00  6.57641216E-01  3.32124110E-01  2.42452356E+00  6.57641216E-01
  3.32124110E-01  2.42452356E+00  6.57641216E-01  3.32124110E-01  2.42452356E+00
  6.57641216E-01  3.32124110E-01  2.42452356E+00  6.57641216E-01  3.32124110E-01
  2.82212761E+00  2.89424299E+00 -3.33382599E-01  2.82212761E+00  2.89424299E+00
 -3.33382599E-01  2.82212761E+00  2.89424299E+00 -3.33382599E-01  2.82212761E+00
  2.89424299E+00 -3.33382599E-01  2.82212761E+00  2.89424299E+00 -3.33382599E-01
  4.14394509E+00 -4.80804151E-01  1.69329452E+00  4.14394509E+00 -4.80804151E-01
  1.69329452E+00  4.14394509E+00 -4.80804151E-01  1.69329452E+00  4.14394509E+00
 -4.80804151E-01  1.69329452E+00  4.14394509E+00 -4.80804151E-01  1.69329452E+00
  6.42055630E-03 -9.46348001E-01 -5.04853618E-01  6.42055630E-03 -9.46348001E-01
 -5.04853618E-01  6.42055630E-03 -9.46348001E-01 -5.04853618E-01  6.42055630E-03
 -9.46348001E-01 -5.04853618E-01  6.42055630E-03 -9.46348001E-01 -5.04853618E-01
 -2.33444963E-01 -1.37316223E+00 -3.34299108E+00 -2.33444963E-01 -1.37316223E+00
 -3.34299108E+00 -2.33444963E-01 -1.37316223E+00 -3.34299108E+00 -2.33444963E-01
 -1.37316223E+00 -3.34299108E+00 -2.33444963E-01 -1.37316223E+00 -3.34299108E+00
  2.72364382E-01 -3.34847406E+00  6.33240771E-01  2.72364382E-01 -3.34847406E+00
  6.33240771E-01  2.72364382E-01 -3.34847406E+00  6.33240771E-01  2.72364382E-01
 -3.34847406E+00  6.33240771E-01  2.72364382E-01 -3.34847406E+00  6.33240771E-01
 -2.35399246E+00  2.94470319E-01  5.40308209E-01 -2.35399246E+00  2.94470319E-01
  5.40308209E-01 -2.35399246E+00  2.94470319E-01  5.40308209E-01 -2.35399246E+00
  2.94470319E-01  5.40308209E-01 -2.35399246E+00  2.94470319E-01  5.40308209E-01
 -3.85311743E+00 -8.94194937E-01  1.97574944E+00 -3.85311743E+00 -8.94194937E-01
  1.97574944E+00 -3.85311743E+00 -8.94194937E-01  1.97574944E+00 -3.85311743E+00
 -8.94194937E-01  1.97574944E+00 -3.85311743E+00 -8.94194937E-01  1.97574944E+00
 -2.85228991E+00  2.90123883E+00 -1.50381481E-01 -2.85228991E+00  2.90123883E+00
 -1.50381481E-01 -2.85228991E+00  2.90123883E+00 -1.50381481E-01 -2.85228991E+00
  2.90123883E+00 -1.50381481E-01 -2.85228991E+00  2.90123883E+00 -1.50381481E-01
 -1.85062255E+00  3.27510868E+00 -1.86918985E+00 -1.85062255E+00  3.27510868E+00
 -1.86918985E+00 -1.60596563E+00  3.88183728E+00  1.13817338E+00 -1.60596563E+00
  3.88183728E+00  1.13817338E+00 -4.96162900E+00  3.30386140E+00 -3.66710994E-01
 -4.96162900E+00  3.30386140E+00 -3.66710994E-01 -2.07589896E+00 -2.17465467E+00
 -4.06369641E+00 -2.07589896E+00 -2.17465467E+00 -4.06369641E+00  1.03809157E+00
 -3.14562389E+00 -3.38326261E+00  1.03809157E+00 -3.14562389E+00 -3.38326261E+00
  4.26166567E-01  2.90271580E-01 -4.45176740E+00  4.26166567E-01  2.90271580E-01
 -4.45176740E+00
SCF Energy                                 R     -4.949762303883571E+02
Dipole_Data                                R   N=           3
 -4.99808831E+00  4.04678700E+00 -3.13380436E+00
Quadrupole_Data                            R   N=           6
 -9.37062181E+01 -6.10536342E+00 -8.60530348E+01 -7.28741627E-01  5.18374655E+00
 -7.18628316E+01
Octapole_Data                              R   N=          10
 -8.65771951E+00 -9.04006512E+00 -4.06296809E+00  3.79251298E+00 -1.87025756E+01
  1.24580960E+00  7.21971762E+00  5.42329714E+00  5.28415896E+00  3.67121827E+01
Hexadecapole_Data                          R   N=          15
 -9.43333479E+02 -5.35990996E+00 -2.60709827E+02  1.61716717E-01 -6.30120558E+02
 -9.36044263E+00  7.98125431E+00 -1.16069014E+00  5.12093108E+00 -2.26096585E+02
  6.82825896E-01 -1.59598097E+02 -1.49317951E+01 -1.52069727E+01 -4.61607827E+02
Cartesian Forces                           R   N=          45
  7.29421764E-02 -2.80355133E-02  3.36361071E-02 -2.42019524E-02  3.36913271E-02
 -2.29192799E-02 -3.89590792E-02  9.80499373E-03 -2.20444596E-02  7.09976964E-03
 -6.74054134E-02  6.36216554E-02  1.87492547E-02 -2.68517514E-02 -1.96214186E-02
 -1.26381279E-02  2.00795200E-02 -2.29941729E-02 -3.50004388E-02 -5.77241153E-02
  3.19774975E-02  1.91141860E-02  3.01371334E-02 -2.52411542E-02 -2.09092703E-02
  1.60473419E-02 -1.77787613E-02  6.57565911E-04  6.22888341E-03 -1.97896393E-02
 -9.70098978E-03  2.20779306E-02  1.42268439E-02  2.60944507E-02  4.67231356E-03
  1.40377718E-02  7.08341566E-03  1.56293262E-02  1.15346357E-02 -8.56383603E-03
  3.09191743E-02 -1.35881737E-02 -1.76712457E-03 -9.27115080E-03 -5.05745194E-03
Current cartesian coordinates              R   N=          45
  2.43023099E+00  6.28711476E-01  3.39133703E-01  2.58104739E+00  2.88691545E+00
 -4.25138830E-01  4.18314562E+00 -4.00076281E-01  1.68290544E+00  2.36901636E-02
 -1.07101069E+00 -4.25942780E-01 -1.85405565E-01 -1.39648654E+00 -3.31647795E+00
  2.47331573E-01 -3.47961936E+00  6.28000429E-01 -2.36492663E+00  2.36219135E-01
  5.75861122E-01 -3.92912732E+00 -8.51296254E-01  1.97512164E+00 -2.80690666E+00
  2.90722807E+00 -1.57425840E-01 -1.80495317E+00  3.29549088E+00 -1.90060292E+00
 -1.62535930E+00  3.97403070E+00  1.15232997E+00 -4.86897805E+00  3.34438436E+00
 -3.59161262E-01 -2.05017100E+00 -2.11978304E+00 -3.99008284E+00  1.07179309E+00
 -3.10631801E+00 -3.53479975E+00  4.45267327E-01  2.87020471E-01 -4.39706574E+00
SCF Energy                                 R     -4.950047772450941E+02
Dipole_Data                                R   N=           3
 -4.68072674E+00  3.94198019E+00 -2.93251792E+00
Quadrupole_Data                            R   N=           6
 -9.31525361E+01 -5.82865732E+00 -8.68596366E+01 -5.77906096E-01  5.17311458E+00
 -7.14924394E+01
Octapole_Data                              R   N=          10
 -7.81658700E+00 -9.31110230E+00 -3.99833202E+00  6.30027654E+00 -1.88065675E+01
  1.36246175E+00  7.29009456E+00  5.06839955E+00  5.25553973E+00  3.57972745E+01
Hexadecapole_Data                          R   N=          15
 -9.34114573E+02 -1.94939065E+00 -2.59185750E+02  2.15845485E+00 -6.46672458E+02
 -5.78653823E+00  7.88620160E+00  4.79293098E-02  6.59398333E+00 -2.22723130E+02
  4.00443998E-01 -1.61697312E+02 -1.02414618E+01 -1.48659188E+01 -4.54175106E+02
Cartesian Forces                           R   N=          45
  4.78779910E-02 -1.32162425E-02  2.28097529E-02 -1.15681005E-02  1.50549329E-02
 -1.24548834E-02 -2.92840482E-02  8.76048611E-03 -1.84374060E-02  5.71422761E-03
 -5.76185113E-02  4.71879407E-02  1.18549247E-02 -1.65262114E-02 -1.43934202E-02
 -9.25264262E-03  2.26239582E-02 -1.64871006E-02 -2.23958948E-02 -2.87462138E-02
  1.66893191E-02  1.40914243E-02  1.62436938E-02 -1.58448558E-02 -5.00361552E-03
  9.82770831E-03 -1.48412725E-02 -1.71405617E-03  2.31045328E-03 -9.93367402E-03
 -1.08678263E-02  1.23602152E-02  7.75660589E-03  1.36649204E-02  3.17516762E-03
  1.12863772E-02  2.87401413E-03  1.02283586E-02  6.77064341E-03 -4.14196893E-03
  2.13652679E-02 -7.24222334E-03 -1.84934906E-03 -5.84306302E-03 -2.86580332E-03
Current cartesian coordinates              R   N=          45
  2.51166701E+00  5.50905699E-01  3.66128079E-01  2.62821434E+00  2.76710054E+00
 -5.62373006E-01  4.25175935E+00 -4.61226272E-01  1.64900962E+00  5.83226771E-02
 -1.16516631E+00 -3.30133644E-01 -1.26056663E-01 -1.38165373E+00 -3.27319689E+00
  1.92049460E-01 -3.53829365E+00  6.70325498E-01 -2.35762609E+00  2.17883698E-01
  6.08270344E-01 -3.94395573E+00 -8.09923924E-01  1.97879957E+00 -2.85333169E+00
  2.91784248E+00 -1.94267137E-01 -1.89716701E+00  3.33061827E+00 -1.97272243E+00
 -1.79237376E+00  4.11859437E+00  1.11393602E+00 -4.90212053E+00  3.28884955E+00
 -3.36837699E-01 -2.02381689E+00 -1.99797578E+00 -3.90487737E+00  1.10048437E+00
 -3.02331593E+00 -3.65879320E+00  5.00629602E-01  3.21171341E-01 -4.30661337E+00
SCF Energy                                 R     -4.950206937570769E+02
Dipole_Data                                R   N=           3
 -4.56690026E+00  3.75289324E+00 -2.58029982E+00
Quadrupole_Data                            R   N=           6
 -9.34205500E+01 -5.84488239E+00 -8.66577447E+01 -1.69286102E-01  5.61516838E+00
 -7.14546569E+01
Octapole_Data                              R   N=          10
 -8.15503408E+00 -1.09558058E+01 -3.19793772E+00  5.80230934E+00 -1.77977506E+01
  2.15902174E+00  7.80431540E+00  5.39468792E+00  4.98725867E+00  3.58427703E+01
Hexadecapole_Data                          R   N=          15
 -9.56998415E+02  4.52355739E+00 -2.62694721E+02  8.28301328E+00 -6.44661073E+02
 -1.44876608E+00  1.15724287E+01  9.92194818E-01  1.36875262E+01 -2.24781932E+02
  1.52953769E+00 -1.61919790E+02 -6.63695136E+00 -9.79731622E+00 -4.50221138E+02
Cartesian Forces                           R   N=          45
  2.30981161E-02 -3.08742310E-03  9.84111565E-04 -7.81774636E-03  8.08486130E-03
 -4.15849720E-03 -1.15274811E-02  2.62270503E-03 -2.72577585E-03  2.34321887E-03
 -3.79337632E-02  3.08020493E-02  3.50391624E-03 -4.53888446E-03 -8.60564912E-03
 -4.93015335E-03  1.46533233E-02 -1.05250847E-02 -8.33139413E-03 -8.38612845E-03
  3.35355840E-03  3.28464664E-03  5.04689839E-03 -3.48308813E-03  7.23214239E-03
  4.60110265E-03 -1.12033549E-02 -2.24063380E-03 -2.58544940E-04 -4.76233648E-03
 -8.23014178E-03  5.45190544E-03  5.03163844E-03  3.91094310E-03  2.87047108E-03
  6.82575817E-03 -9.91332597E-05  4.96981329E-03  2.56803363E-03  1.70644338E-03
  8.11301425E-03 -3.18368485E-03 -1.90274297E-03 -2.20935061E-03 -9.17678224E-04
Current cartesian coordinates              R   N=          45
  2.54147414E+00  5.09859352E-01  3.24712685E-01  2.48050128E+00  2.77701688E+00
 -5.04322515E-01  4.22373379E+00 -3.92654349E-01  1.72078171E+00  8.12063542E-02
 -1.26411573E+00 -2.92807492E-01 -1.32869698E-01 -1.38683353E+00 -3.26675079E+00
  1.88031269E-01 -3.60318520E+00  6.76101926E-01 -2.32685564E+00  1.89954992E-01
  6.13929848E-01 -3.92547000E+00 -7.71609896E-01  2.00178220E+00 -2.79431770E+00
  2.90860304E+00 -2.39549419E-01 -1.87523667E+00  3.29535009E+00 -2.04767616E+00
 -1.78187634E+00  4.15667983E+00  1.06545708E+00 -4.83741975E+00  3.28775042E+00
 -3.21682343E-01 -2.05242920E+00 -1.95802384E+00 -3.86118438E+00  1.10457723E+00
 -2.96813307E+00 -3.77569202E+00  4.53629364E-01  3.54751368E-01 -4.24644596E+00
SCF Energy                                 R     -4.950255391972639E+02
Dipole_Data                                R   N=           3
 -4.27421444E+00  3.54281302E+00 -2.54328496E+00
Quadrupole_Data                            R   N=           6
 -9.25190605E+01 -5.70459420E+00 -8.70284244E+01 -7.10671320E-01  5.18731186E+00
 -7.18755956E+01
Octapole_Data                              R   N=          10
 -6.28455106E+00 -1.12833919E+01 -3.38517499E+00  6.67900751E+00 -1.77176633E+01
  1.66256166E+00  8.43934791E+00  5.46102310E+00  5.21892075E+00  3.76503690E+01
Hexadecapole_Data                          R   N=          15
 -9.34900158E+02  6.40645390E+00 -2.59611174E+02  8.15633967E+00 -6.52193276E+02
 -7.06986639E+00  1.06955906E+01 -1.14442840E+00  1.34316237E+01 -2.23094660E+02
  1.01125056E+00 -1.64485115E+02 -1.04293053E+01 -1.16972613E+01 -4.58006249E+02
Cartesian Forces                           R   N=          45
 -2.53841176E-03  1.01651458E-02  1.39684812E-02  1.39980674E-03 -7.04215680E-05
 -8.06604400E-03  3.14036973E-03 -4.30716936E-03 -3.42557649E-03  4.41755223E-03
 -2.14069829E-02  1.32275726E-02 -7.99362671E-04 -1.88182223E-03 -6.05833758E-03
 -2.59919398E-03  6.31766542E-03 -5.89550772E-03 -1.59757629E-03  1.16528532E-03
  1.25971838E-03 -6.96316127E-04  1.51688258E-04  1.42633061E-05  5.81869977E-03
  1.93724542E-03 -7.90749235E-03 -2.70035623E-03  7.70892635E-05 -1.69600401E-03
 -5.01189312E-03  2.18839620E-03  2.74046159E-03  2.45476124E-04  1.51485324E-03
  3.67826032E-03 -1.96123845E-04  2.17477247E-03  4.25328609E-04  2.68765040E-03
  2.63920214E-03 -1.83694431E-03 -1.57032097E-03 -6.64947460E-04 -4.28179504E-04
Current cartesian coordinates              R   N=          45
  2.52223562E+00  5.01181258E-01  3.89108239E-01  2.45127037E+00  2.69024330E+00
 -6.50169764E-01  4.29344844E+00 -4.01865582E-01  1.64726210E+00  8.16416401E-02
 -1.35101477E+00 -2.09054310E-01 -1.14562012E-01 -1.35637690E+00 -3.21978319E+00
  1.63212231E-01 -3.66673275E+00  7.03020550E-01 -2.33891488E+00  1.61261932E-01
  6.35519446E-01 -3.97718185E+00 -7.46779362E-01  2.00465180E+00 -2.77132346E+00
  2.89600691E+00 -2.80347261E-01 -1.86459326E+00  3.26326740E+00 -2.10290091E+00
 -1.83915520E+00  4.19410308E+00  1.04008033E+00 -4.81133441E+00  3.27632339E+00
 -3.37361000E-01 -2.04105805E+00 -1.89024746E+00 -3.81825499E+00  1.15270623E+00
 -2.86660349E+00 -3.83722565E+00  4.40287038E-01  4.32643394E-01 -4.11789100E+00
SCF Energy                                 R     -4.950279598839885E+02
Dipole_Data                                R   N=           3
 -4.13959442E+00  3.42073247E+00 -2.29350026E+00
Quadrupole_Data                            R   N=           6
 -9.33775678E+01 -5.46538171E+00 -8.67337225E+01 -9.75304299E-02  5.60362445E+00
 -7.16956633E+01
Octapole_Data                              R   N=          10
 -6.24555949E+00 -1.21047192E+01 -2.61193478E+00  6.30934390E+00 -1.74561828E+01
  2.04061094E+00  8.42335263E+00  5.77563936E+00  4.78640676E+00  3.63666286E+01
Hexadecapole_Data                          R   N=          15
 -9.53141663E+02  9.09809322E+00 -2.59778670E+02  1.14081202E+01 -6.50231008E+02
 -1.96853294E+00  1.36506493E+01  3.82062783E-01  2.04926373E+01 -2.23634240E+02
  1.59226128E+00 -1.63516118E+02 -6.23083992E+00 -5.56957740E+00 -4.49217661E+02
Cartesian Forces                           R   N=          45
 -2.10130118E-03  5.67372505E-03 -1.26047503E-02  2.94659236E-03 -2.73797555E-03
  4.96541662E-03  5.44655188E-03 -2.10643922E-03  7.26032202E-03 -1.73069492E-03
  1.03695897E-03  4.24403774E-03 -1.88077808E-03 -1.85854465E-04 -4.18274407E-03
 -5.37015654E-04 -2.90755853E-03  2.70951036E-04  2.78540702E-03  5.41834487E-03
 -2.50044111E-03 -3.52855355E-03 -2.49471889E-03  3.40075413E-03  3.90067865E-03
 -9.28915846E-05 -3.66403214E-03 -2.78633531E-03  9.90999770E-05  1.44656268E-03
 -1.60507097E-03 -1.54235645E-04  7.46266022E-04 -2.25731318E-03  1.80971684E-04
  9.24753258E-04 -6.50487039E-05 -5.37110285E-04 -4.14227078E-04  2.54526715E-03
 -9.60457629E-04 -4.84675390E-04 -1.13238551E-03 -2.31858754E-04  5.91806571E-04
Current cartesian coordinates              R   N=          45
  2.62808526E+00  4.22791165E-01  4.07320944E-01  2.68665307E+00  2.59712386E+00
 -6.61568286E-01  4.28440876E+00 -5.08044856E-01  1.80945041E+00  1.02321746E-01
 -1.34442640E+00 -2.08005417E-01 -1.07234613E-01 -1.32550358E+00 -3.23749931E+00
  1.23847498E-01 -3.67481384E+00  6.58841713E-01 -2.30260262E+00  2.04172019E-01
  6.74376504E-01 -3.89767342E+00 -6.89655500E-01  2.10818536E+00 -2.84774883E+00
  2.90134395E+00 -3.21526850E-01 -2.06782827E+00  3.24892354E+00 -2.20319401E+00
 -1.92281664E+00  4.27930705E+00  9.23184520E-01 -4.90174796E+00  3.21440951E+00
 -2.66024354E-01 -2.02755425E+00 -1.88371394E+00 -3.82987814E+00  1.19906046E+00
 -2.79179523E+00 -3.89140602E+00  3.97508254E-01  4.85292619E-01 -4.11560268E+00
SCF Energy                                 R     -4.950288134105378E+02
Dipole_Data                                R   N=           3
 -4.30332006E+00  3.47836932E+00 -2.30322903E+00
Quadrupole_Data                            R   N=           6
 -9.33829828E+01 -5.66518419E+00 -8.60864981E+01 -2.89394512E-01  5.57729407E+00
 -7.26768277E+01
Octapole_Data                              R   N=          10
 -7.25975196E+00 -1.34409671E+01 -2.13362180E+00  6.37957790E+00 -1.74911743E+01
  2.66865331E+00  9.44203915E+00  5.60810522E+00  4.32717426E+00  3.71410313E+01
Hexadecapole_Data                          R   N=          15
 -9.67547084E+02  1.41111512E+01 -2.62813308E+02  1.60154857E+01 -6.39136768E+02
 -6.58241197E+00  1.58100032E+01 -1.11284664E+00  2.16140065E+01 -2.32472876E+02
  3.18843148E+00 -1.64697170E+02 -1.00798738E+01 -3.80143490E+00 -4.68884100E+02
Cartesian Forces                           R   N=          45
 -4.17828207E-03  6.45312767E-03 -3.99971432E-03 -1.14788069E-04 -4.40041111E-03
  3.05536497E-03  1.77662546E-03 -6.54842188E-04  1.63987491E-03  1.32527016E-04
  3.27902946E-05 -1.72629622E-03 -1.37481161E-03  1.62329144E-03 -1.07862623E-03
 -2.88144227E-04 -2.45533884E-03  1.64320077E-03  8.64929395E-04  2.46779627E-03
 -3.36038413E-03 -3.85490819E-04 -5.34916990E-04  2.20895951E-03  4.30271537E-03
  1.05703029E-05  2.36644903E-04 -1.02230538E-03 -7.43247090E-04  6.36653245E-04
  3.23966082E-04 -8.14347628E-04  4.42944000E-04 -8.10399139E-04 -5.45724366E-05
 -6.43603124E-04 -9.05767285E-05 -1.28333391E-03  7.15115308E-05  1.11017088E-03
 -4.13696319E-04  6.07171026E-04 -2.46136144E-04  7.67130543E-04  2.66299164E-04
Current cartesian coordinates              R   N=          45
  2.57718663E+00  4.30692682E-01  4.13213066E-01  2.63757484E+00  2.61045868E+00
 -6.25950182E-01  4.22415899E+00 -4.85750930E-01  1.84872755E+00  7.77572098E-02
 -1.36123235E+00 -2.30730238E-01 -1.19858247E-01 -1.33984626E+00 -3.26145761E+00
  1.04699844E-01 -3.70003252E+00  6.50170941E-01 -2.31319669E+00  2.01390083E-01
  6.46407451E-01 -3.87127211E+00 -6.51349741E-01  2.15081392E+00 -2.80759972E+00
  2.90961681E+00 -3.22294781E-01 -2.07068899E+00  3.24480375E+00 -2.21857284E+00
 -1.81168346E+00  4.24383300E+00  9.13813942E-01 -4.85542992E+00  3.27374966E+00
 -2.21029319E-01 -1.98276400E+00 -2.05524631E+00 -3.87246598E+00  1.31141783E+00
 -2.69837290E+00 -3.89958466E+00  2.46376238E-01  5.12696708E-01 -4.12440688E+00
SCF Energy                                 R     -4.950293426544268E+02
Dipole_Data                                R   N=           3
 -4.26068563E+00  3.56139479E+00 -2.44791034E+00
Quadrupole_Data                            R   N=           6
 -9.26753659E+01 -5.49571627E+00 -8.62970203E+01 -2.66409097E-01  5.31999246E+00
 -7.29151175E+01
Octapole_Data                              R   N=          10
 -6.96662913E+00 -1.32867885E+01 -2.18210054E+00  7.86692521E+00 -1.79517766E+01
  2.53792460E+00  9.62760756E+00  5.28956235E+00  4.59821357E+00  3.70367296E+01
Hexadecapole_Data                          R   N=          15
 -9.42957872E+02  1.40758363E+01 -2.59571515E+02  1.58114710E+01 -6.45462923E+02
 -7.31277164E+00  1.42626451E+01 -1.14406555E+00  1.87687627E+01 -2.30522609E+02
  3.30760250E+00 -1.66309352E+02 -9.60996008E+00 -6.47799204E+00 -4.74870484E+02
Cartesian Forces                           R   N=          45
  8.25354181E-04  2.50305868E-03  1.79273390E-03 -7.68534600E-04 -2.23764934E-03
 -2.89447806E-04 -1.27443689E-03 -2.72281506E-04 -1.17139839E-03 -2.58397418E-03
 -3.16327990E-03 -1.10047585E-03  1.17619236E-03 -4.00107002E-04  1.50692983E-04
 -2.05335049E-04  3.37558682E-03 -1.75637869E-03  2.29510734E-03  8.52579775E-04
  3.29584753E-03 -3.65290310E-04  1.15207312E-04 -1.10193336E-03  4.10120199E-04
 -3.01574052E-04  2.65324128E-04 -4.36286600E-04  6.02158783E-05 -3.32012165E-04