Jobname.Temp
FREQ      R                             6-31+G(d)           
Number of atoms                            I               15
Charge                                     I               -2
Multiplicity                               I                1
Number of electrons                        I               70
Number of alpha electrons                  I               35
Number of beta electrons                   I               35
Atomic numbers                             I   N=          15
           6           8           8           6           8           6
           8           6           1           1           1           6
           1           1           1
Current cartesian coordinates              R   N=          45
  2.79900387E+00  7.65155336E-01  2.57545783E-01  2.59321784E+00  2.88983547E+00
 -7.84028074E-01  4.98920878E+00 -1.18591992E-01  8.55598547E-01  4.29004041E-01
 -7.98732942E-01  6.64650153E-01 -7.38716747E-01 -1.58877916E+00 -2.86199031E+00
  1.00585497E+00 -2.93592965E+00  1.82308548E+00 -2.19803234E+00 -2.75990295E-01
  5.61647665E-01 -3.87775168E+00 -1.89885831E+00  1.23085163E+00 -3.31402998E+00
  2.15877376E+00 -2.15268637E-01 -4.93004857E+00  1.90192259E+00 -1.83276363E+00
 -1.75707424E+00  3.38201883E+00 -9.83922903E-01 -4.48611221E+00  3.27873744E+00
  1.19162877E+00 -2.31125606E+00 -3.03951542E+00 -2.82132441E+00  1.13162233E+00
 -2.38221336E+00 -3.45376602E+00 -1.20462769E+00  2.64990192E-01 -3.86934787E+00
Nuclear charges                            R   N=          15
  6.00000000E+00  8.00000000E+00  8.00000000E+00  6.00000000E+00  8.00000000E+00
  6.00000000E+00  8.00000000E+00  6.00000000E+00  1.00000000E+00  1.00000000E+00
  1.00000000E+00  6.00000000E+00  1.00000000E+00  1.00000000E+00  1.00000000E+00
Number of basis functions                  I              183
Number of contracted shells                I               57
Number of primitive shells                 I              132
Highest angular momentum                   I                2
Largest degree of contraction              I                6
Shell types                                I   N=          57
           0          -1          -1          -1           2           0
          -1          -1          -1           2           0          -1
          -1          -1           2           0          -1          -1
          -1           2           0          -1          -1          -1
           2           0          -1          -1          -1           2
           0          -1          -1          -1           2           0
          -1          -1          -1           2           0           0
           0           0           0           0           0          -1
          -1          -1           2           0           0           0
           0           0           0
Number of primitives per shell             I   N=          57
           6           3           1           1           1           6
           3           1           1           1           6           3
           1           1           1           6           3           1
           1           1           6           3           1           1
           1           6           3           1           1           1
           6           3           1           1           1           6
           3           1           1           1           3           1
           3           1           3           1           6           3
           1           1           1           3           1           3
           1           3           1
Shell to atom map                          I   N=          57
           1           1           1           1           1           2
           2           2           2           2           3           3
           3           3           3           4           4           4
           4           4           5           5           5           5
           5           6           6           6           6           6
           7           7           7           7           7           8
           8           8           8           8           9           9
          10          10          11          11          12          12
          12          12          12          13          13          14
          14          15          15
Primitive exponents                        R   N=         132
  3.04752490E+03  4.57369510E+02  1.03948690E+02  2.92101550E+01  9.28666300E+00
  3.16392700E+00  7.86827240E+00  1.88128850E+00  5.44249300E-01  1.68714400E-01
  4.38000000E-02  8.00000000E-01  5.48467170E+03  8.25234950E+02  1.88046960E+02
  5.29645000E+01  1.68975700E+01  5.79963530E+00  1.55396160E+01  3.59993360E+00
  1.01376180E+00  2.70005800E-01  8.45000000E-02  8.00000000E-01  5.48467170E+03
  8.25234950E+02  1.88046960E+02  5.29645000E+01  1.68975700E+01  5.79963530E+00
  1.55396160E+01  3.59993360E+00  1.01376180E+00  2.70005800E-01  8.45000000E-02
  8.00000000E-01  3.04752490E+03  4.57369510E+02  1.03948690E+02  2.92101550E+01
  9.28666300E+00  3.16392700E+00  7.86827240E+00  1.88128850E+00  5.44249300E-01
  1.68714400E-01  4.38000000E-02  8.00000000E-01  5.48467170E+03  8.25234950E+02
  1.88046960E+02  5.29645000E+01  1.68975700E+01  5.79963530E+00  1.55396160E+01
  3.59993360E+00  1.01376180E+00  2.70005800E-01  8.45000000E-02  8.00000000E-01
  3.04752490E+03  4.57369510E+02  1.03948690E+02  2.92101550E+01  9.28666300E+00
  3.16392700E+00  7.86827240E+00  1.88128850E+00  5.44249300E-01  1.68714400E-01
  4.38000000E-02  8.00000000E-01  5.48467170E+03  8.25234950E+02  1.88046960E+02
  5.29645000E+01  1.68975700E+01  5.79963530E+00  1.55396160E+01  3.59993360E+00
  1.01376180E+00  2.70005800E-01  8.45000000E-02  8.00000000E-01  3.04752490E+03
  4.57369510E+02  1.03948690E+02  2.92101550E+01  9.28666300E+00  3.16392700E+00
  7.86827240E+00  1.88128850E+00  5.44249300E-01  1.68714400E-01  4.38000000E-02
  8.00000000E-01  1.87311370E+01  2.82539370E+00  6.40121700E-01  1.61277800E-01
  1.87311370E+01  2.82539370E+00  6.40121700E-01  1.61277800E-01  1.87311370E+01
  2.82539370E+00  6.40121700E-01  1.61277800E-01  3.04752490E+03  4.57369510E+02
  1.03948690E+02  2.92101550E+01  9.28666300E+00  3.16392700E+00  7.86827240E+00
  1.88128850E+00  5.44249300E-01  1.68714400E-01  4.38000000E-02  8.00000000E-01
  1.87311370E+01  2.82539370E+00  6.40121700E-01  1.61277800E-01  1.87311370E+01
  2.82539370E+00  6.40121700E-01  1.61277800E-01  1.87311370E+01  2.82539370E+00
  6.40121700E-01  1.61277800E-01
Contraction coefficients                   R   N=         132
  3.17779390E-03  2.43133190E-02  1.19238892E-01  4.02155213E-01  8.10498179E-01
  6.27542848E-01 -1.19332409E-01 -1.60854212E-01  1.14345648E+00  1.00000000E+00
  1.00000000E+00  1.00000000E+00  3.17155790E-03  2.41622794E-02  1.18550378E-01
  4.03072948E-01  8.14398079E-01  6.20976348E-01 -1.10777504E-01 -1.48026305E-01
  1.13076704E+00  1.00000000E+00  1.00000000E+00  1.00000000E+00  3.17155790E-03
  2.41622794E-02  1.18550378E-01  4.03072948E-01  8.14398079E-01  6.20976348E-01
 -1.10777504E-01 -1.48026305E-01  1.13076704E+00  1.00000000E+00  1.00000000E+00
  1.00000000E+00  3.17779390E-03  2.43133190E-02  1.19238892E-01  4.02155213E-01
  8.10498179E-01  6.27542848E-01 -1.19332409E-01 -1.60854212E-01  1.14345648E+00
  1.00000000E+00  1.00000000E+00  1.00000000E+00  3.17155790E-03  2.41622794E-02
  1.18550378E-01  4.03072948E-01  8.14398079E-01  6.20976348E-01 -1.10777504E-01
 -1.48026305E-01  1.13076704E+00  1.00000000E+00  1.00000000E+00  1.00000000E+00
  3.17779390E-03  2.43133190E-02  1.19238892E-01  4.02155213E-01  8.10498179E-01
  6.27542848E-01 -1.19332409E-01 -1.60854212E-01  1.14345648E+00  1.00000000E+00
  1.00000000E+00  1.00000000E+00  3.17155790E-03  2.41622794E-02  1.18550378E-01
  4.03072948E-01  8.14398079E-01  6.20976348E-01 -1.10777504E-01 -1.48026305E-01
  1.13076704E+00  1.00000000E+00  1.00000000E+00  1.00000000E+00  3.17779390E-03
  2.43133190E-02  1.19238892E-01  4.02155213E-01  8.10498179E-01  6.27542848E-01
 -1.19332409E-01 -1.60854212E-01  1.14345648E+00  1.00000000E+00  1.00000000E+00
  1.00000000E+00  5.80143482E-02  4.06558998E-01  1.40946902E+00  1.73205081E+00
  5.80143482E-02  4.06558998E-01  1.40946902E+00  1.73205081E+00  5.80143482E-02
  4.06558998E-01  1.40946902E+00  1.73205081E+00  3.17779390E-03  2.43133190E-02
  1.19238892E-01  4.02155213E-01  8.10498179E-01  6.27542848E-01 -1.19332409E-01
 -1.60854212E-01  1.14345648E+00  1.00000000E+00  1.00000000E+00  1.00000000E+00
  5.80143482E-02  4.06558998E-01  1.40946902E+00  1.73205081E+00  5.80143482E-02
  4.06558998E-01  1.40946902E+00  1.73205081E+00  5.80143482E-02  4.06558998E-01
  1.40946902E+00  1.73205081E+00
P(S=P) Contraction coefficients            R   N=         132
  0.00000000E+00  0.00000000E+00  0.00000000E+00  0.00000000E+00  0.00000000E+00
  0.00000000E+00  1.19509939E-01  5.48062410E-01  1.28917971E+00  1.73205081E+00
  1.73205081E+00  0.00000000E+00  0.00000000E+00  0.00000000E+00  0.00000000E+00
  0.00000000E+00  0.00000000E+00  0.00000000E+00  1.22757888E-01  5.88469108E-01
  1.25947563E+00  1.73205081E+00  1.73205081E+00  0.00000000E+00  0.00000000E+00
  0.00000000E+00  0.00000000E+00  0.00000000E+00  0.00000000E+00  0.00000000E+00
  1.22757888E-01  5.88469108E-01  1.25947563E+00  1.73205081E+00  1.73205081E+00
  0.00000000E+00  0.00000000E+00  0.00000000E+00  0.00000000E+00  0.00000000E+00
  0.00000000E+00  0.00000000E+00  1.19509939E-01  5.48062410E-01  1.28917971E+00
  1.73205081E+00  1.73205081E+00  0.00000000E+00  0.00000000E+00  0.00000000E+00
  0.00000000E+00  0.00000000E+00  0.00000000E+00  0.00000000E+00  1.22757888E-01
  5.88469108E-01  1.25947563E+00  1.73205081E+00  1.73205081E+00  0.00000000E+00
  0.00000000E+00  0.00000000E+00  0.00000000E+00  0.00000000E+00  0.00000000E+00
  0.00000000E+00  1.19509939E-01  5.48062410E-01  1.28917971E+00  1.73205081E+00
  1.73205081E+00  0.00000000E+00  0.00000000E+00  0.00000000E+00  0.00000000E+00
  0.00000000E+00  0.00000000E+00  0.00000000E+00  1.22757888E-01  5.88469108E-01
  1.25947563E+00  1.73205081E+00  1.73205081E+00  0.00000000E+00  0.00000000E+00
  0.00000000E+00  0.00000000E+00  0.00000000E+00  0.00000000E+00  0.00000000E+00
  1.19509939E-01  5.48062410E-01  1.28917971E+00  1.73205081E+00  1.73205081E+00
  0.00000000E+00  0.00000000E+00  0.00000000E+00  0.00000000E+00  0.00000000E+00
  0.00000000E+00  0.00000000E+00  0.00000000E+00  0.00000000E+00  0.00000000E+00
  0.00000000E+00  0.00000000E+00  0.00000000E+00  0.00000000E+00  0.00000000E+00
  0.00000000E+00  0.00000000E+00  0.00000000E+00  0.00000000E+00  1.19509939E-01
  5.48062410E-01  1.28917971E+00  1.73205081E+00  1.73205081E+00  0.00000000E+00
  0.00000000E+00  0.00000000E+00  0.00000000E+00  0.00000000E+00  0.00000000E+00
  0.00000000E+00  0.00000000E+00  0.00000000E+00  0.00000000E+00  0.00000000E+00
  0.00000000E+00  0.00000000E+00
Coordinates of each shell                  R   N=         171
  2.79900387E+00  7.65155336E-01  2.57545783E-01  2.79900387E+00  7.65155336E-01
  2.57545783E-01  2.79900387E+00  7.65155336E-01  2.57545783E-01  2.79900387E+00
  7.65155336E-01  2.57545783E-01  2.79900387E+00  7.65155336E-01  2.57545783E-01
  2.59321784E+00  2.88983547E+00 -7.84028074E-01  2.59321784E+00  2.88983547E+00
 -7.84028074E-01  2.59321784E+00  2.88983547E+00 -7.84028074E-01  2.59321784E+00
  2.88983547E+00 -7.84028074E-01  2.59321784E+00  2.88983547E+00 -7.84028074E-01
  4.98920878E+00 -1.18591992E-01  8.55598547E-01  4.98920878E+00 -1.18591992E-01
  8.55598547E-01  4.98920878E+00 -1.18591992E-01  8.55598547E-01  4.98920878E+00
 -1.18591992E-01  8.55598547E-01  4.98920878E+00 -1.18591992E-01  8.55598547E-01
  4.29004041E-01 -7.98732942E-01  6.64650153E-01  4.29004041E-01 -7.98732942E-01
  6.64650153E-01  4.29004041E-01 -7.98732942E-01  6.64650153E-01  4.29004041E-01
 -7.98732942E-01  6.64650153E-01  4.29004041E-01 -7.98732942E-01  6.64650153E-01
 -7.38716747E-01 -1.58877916E+00 -2.86199031E+00 -7.38716747E-01 -1.58877916E+00
 -2.86199031E+00 -7.38716747E-01 -1.58877916E+00 -2.86199031E+00 -7.38716747E-01
 -1.58877916E+00 -2.86199031E+00 -7.38716747E-01 -1.58877916E+00 -2.86199031E+00
  1.00585497E+00 -2.93592965E+00  1.82308548E+00  1.00585497E+00 -2.93592965E+00
  1.82308548E+00  1.00585497E+00 -2.93592965E+00  1.82308548E+00  1.00585497E+00
 -2.93592965E+00  1.82308548E+00  1.00585497E+00 -2.93592965E+00  1.82308548E+00
 -2.19803234E+00 -2.75990295E-01  5.61647665E-01 -2.19803234E+00 -2.75990295E-01
  5.61647665E-01 -2.19803234E+00 -2.75990295E-01  5.61647665E-01 -2.19803234E+00
 -2.75990295E-01  5.61647665E-01 -2.19803234E+00 -2.75990295E-01  5.61647665E-01
 -3.87775168E+00 -1.89885831E+00  1.23085163E+00 -3.87775168E+00 -1.89885831E+00
  1.23085163E+00 -3.87775168E+00 -1.89885831E+00  1.23085163E+00 -3.87775168E+00
 -1.89885831E+00  1.23085163E+00 -3.87775168E+00 -1.89885831E+00  1.23085163E+00
 -3.31402998E+00  2.15877376E+00 -2.15268637E-01 -3.31402998E+00  2.15877376E+00
 -2.15268637E-01 -4.93004857E+00  1.90192259E+00 -1.83276363E+00 -4.93004857E+00
  1.90192259E+00 -1.83276363E+00 -1.75707424E+00  3.38201883E+00 -9.83922903E-01
 -1.75707424E+00  3.38201883E+00 -9.83922903E-01 -4.48611221E+00  3.27873744E+00
  1.19162877E+00 -4.48611221E+00  3.27873744E+00  1.19162877E+00 -4.48611221E+00
  3.27873744E+00  1.19162877E+00 -4.48611221E+00  3.27873744E+00  1.19162877E+00
 -4.48611221E+00  3.27873744E+00  1.19162877E+00 -2.31125606E+00 -3.03951542E+00
 -2.82132441E+00 -2.31125606E+00 -3.03951542E+00 -2.82132441E+00  1.13162233E+00
 -2.38221336E+00 -3.45376602E+00  1.13162233E+00 -2.38221336E+00 -3.45376602E+00
 -1.20462769E+00  2.64990192E-01 -3.86934787E+00 -1.20462769E+00  2.64990192E-01
 -3.86934787E+00
SCF Energy                                 R     -4.911716884763651E+02
Number of independent functions            I              183
Alpha MO coefficients                      R   N=       33489
  5.44204709E-06  6.48416306E-06 -9.39593425E-06 -1.70377859E-05 -5.51657336E-06
 -7.86695188E-05  2.91163356E-04 -4.65176452E-04  2.30765023E-04  4.32590840E-04
 -2.00006174E-05 -3.70338693E-05  1.43302690E-04  2.55473799E-05  1.21689257E-05
  7.84328757E-06 -2.00862453E-06  1.55991518E-06  1.40810103E-05 -1.64953132E-05
 -6.69943126E-05  5.31409207E-06  7.35937790E-06 -4.54789043E-06  4.44612460E-04
 -5.18775891E-05 -1.59288794E-04  6.97113093E-05  2.15265316E-04  3.84980223E-06
 -6.58338117E-05  4.04994370E-05 -3.30158008E-05 -1.91297168E-05 -3.49783819E-05
  1.38602586E-05 -1.44042534E-06 -4.25835256E-06  8.27233881E-06  4.13189132E-05
 -2.00030041E-06  5.90911161E-08  2.19050109E-06 -3.20154984E-04  1.15931476E-04
 -2.74437342E-06  1.34338937E-05 -1.31077343E-04  3.14257186E-05 -3.59823241E-05
 -9.11421281E-06  6.55001093E-06  2.38868813E-05  1.77773808E-05  2.94122977E-06
  4.40700197E-07 -1.06664218E-06  1.61129866E-06  1.04131343E-05  3.36526010E-05
  7.18768099E-07  5.73624820E-05  2.64545425E-04 -4.84203325E-04  4.31497416E-04
 -3.52768554E-05  2.01076917E-03 -8.99489441E-04 -5.10468070E-04 -3.14568157E-04
  5.58347313E-06 -1.91312836E-05 -6.38850619E-05 -2.07089831E-06 -1.77603780E-05
 -9.16923604E-06  9.94581526E-01  2.05649831E-02  1.53677453E-04 -9.38109824E-05
 -7.90837352E-04  5.98691129E-03 -1.64111350E-04  8.38603651E-05  6.37421860E-04
 -6.71978097E-04 -1.20063402E-05  2.79927628E-05 -2.62236842E-04 -4.45515877E-03
 -4.42232527E-03 -4.21338609E-03  5.44945637E-05  5.87324310E-05  8.02437421E-05
  1.88978193E-06 -9.65522277E-06 -3.46622543E-06  2.09296091E-05 -2.33358285E-05
  4.54857214E-04 -8.34638684E-05  1.21800146E-04 -1.10387639E-04 -9.78239642E-04
  2.06863810E-04 -6.75420030E-05  1.80600081E-04  1.42321321E-05  9.33383272E-06
  1.43706298E-05 -2.06469048E-06 -1.54463238E-06 -5.30742813E-06 -1.29453320E-04
  3.19521736E-05 -1.33399033E-05  7.96536629E-06  2.02355906E-05 -1.10771343E-04
 -1.03717696E-04  7.76515275E-05  1.20000962E-04 -1.94411093E-03 -6.92678167E-04
  4.55381413E-04  2.73572873E-04 -9.43429283E-06  4.04713776E-06 -4.76423467E-05
  8.61853948E-07  3.30690917E-05 -3.31428884E-05 -3.49013239E-06 -3.44761589E-05
  1.16141414E-05  8.91130931E-06 -1.17171251E-05  3.44064235E-04  1.84729785E-04
 -4.17471227E-05 -1.15301198E-04 -1.83169982E-04 -2.91423375E-05 -2.66520219E-06
 -2.09189099E-05  1.47029000E-05 -7.15697481E-06  1.12404883E-05 -4.92843823E-07
 -7.92459646E-06 -2.25893864E-06  3.70141921E-06  3.17301455E-04 -5.08358561E-06
 -1.07439480E-05  3.22015885E-06 -5.05439298E-06  6.66718426E-06  3.30113831E-05
 -2.05148352E-06 -3.31963642E-06  4.03817833E-06 -2.72219560E-04 -6.01075730E-05
  1.00238982E-04  6.55836949E-05 -2.90383217E-04 -7.56125207E-05  9.82715904E-05
  2.21359749E-05  1.18910271E-05  4.74103862E-06  4.08771334E-06  5.34479699E-06
  8.14874943E-06 -5.81076878E-06  1.92517117E-04 -3.09391568E-04  3.02666995E-04
 -2.81832419E-04  2.57598018E-04 -3.40600810E-04 -1.30094574E-05 -7.86706154E-05
 -1.34769340E-05 -1.74815681E-05  1.09560093E-05  9.65131636E-04 -4.27186812E-04
 -8.12858773E-04  2.76411148E-04 -1.92063604E-03  4.62715568E-04 -2.50894102E-05
  4.75806821E-05  1.63038140E-05 -1.39719322E-05 -1.89801136E-05  7.39210018E-06
  3.79848468E-06  1.25380063E-06 -2.15985459E-05 -8.44068068E-05  3.61568597E-06
  1.23043223E-05 -4.51045423E-06  4.80662132E-04  6.33437103E-06 -1.59376200E-04
  7.80431864E-05  2.82048663E-04  1.68033597E-04 -6.50358554E-05  8.32117685E-05
 -3.18564920E-05 -3.48448865E-05 -5.10591339E-05  1.20942444E-06  5.23482460E-06
 -1.65554851E-05  1.08253993E-05  2.02293079E-05 -4.42570486E-06 -8.34505175E-06
  2.85612817E-06 -1.87242917E-04  1.26399938E-04  7.89472458E-05 -1.79522616E-05
 -8.36959522E-05  2.31784364E-05 -4.40255740E-05  3.06864367E-05 -1.15330829E-05
  2.74906803E-05  4.02820404E-06 -4.18888153E-06  2.80439062E-07 -1.22341800E-05
 -3.35545499E-05  1.15488853E-04 -3.39407354E-04  9.66027756E-05 -2.27820964E-05
  8.01517508E-04 -1.64386390E-03 -7.72037612E-04  2.42749174E-04  6.65077850E-04
  1.39469677E-04  1.45620635E-03 -6.06167714E-04  2.02215454E-04 -5.91784618E-05
 -8.29743910E-05 -4.89442798E-05 -1.44484852E-06 -3.34365558E-05  1.24699538E-04
 -4.82451972E-05  1.73549420E-05 -2.91619630E-05 -5.25009829E-05  1.88061052E-04
 -4.30321145E-05  5.79629690E-05 -1.93429754E-05  5.24661647E-05 -8.41002118E-05
  3.31933154E-05  1.73501581E-04 -4.03362756E-05 -5.58821799E-05 -7.62424661E-05
  1.06847025E-05 -9.98062510E-06  6.62350697E-06 -2.59447687E-06  3.69404445E-05
  7.53326963E-05 -4.36253467E-05  2.04081704E-05 -4.08798817E-04  2.31686269E-04
 -1.52098880E-04  1.18172815E-04  1.80708826E-03 -2.27810315E-04  1.81980051E-04
 -1.82188954E-04 -6.57989915E-05 -3.08884949E-05 -2.86497872E-05  5.98877785E-05
 -4.01840271E-05  6.79053193E-06  9.94502980E-01  2.11929030E-02  3.57353091E-04
 -1.08820940E-03  3.16110405E-04  4.96652918E-03 -8.25871134E-04  1.31684046E-03
 -4.26003841E-04 -3.04824318E-03 -3.62633589E-04  1.54389868E-05  4.01976726E-04
 -4.67010573E-03 -4.34136059E-03 -4.27797193E-03  3.42221946E-05 -1.46297196E-05
  6.18608178E-05  6.44454630E-06  3.34099502E-04  3.30177001E-04  2.18710208E-04
 -8.63869332E-05  4.06183728E-04  1.36806700E-04 -1.04832894E-04 -4.00454569E-05
  4.61042362E-04  5.04228976E-05  2.09876959E-04 -6.65553175E-05 -9.10378236E-06
 -1.22569512E-04 -7.46466944E-05  3.10728105E-05 -4.26639727E-06  6.00284492E-06
 -6.65112278E-05 -7.49201368E-04  3.96864151E-05  2.26538891E-04  1.82546423E-05
  3.35395190E-04  7.49435413E-06  7.19389521E-05 -3.75417498E-06  1.31898113E-05
 -1.32401705E-05  2.54420033E-04  1.03376711E-05  5.14056708E-05 -7.50266461E-05
 -3.97229960E-04 -5.92842807E-05  8.15701506E-05  7.18692567E-05 -1.30366687E-05
 -8.61766514E-05  3.68227423E-05  6.50652059E-05 -7.33734635E-06 -2.93419407E-06
 -6.91060501E-06  5.93457160E-05  5.23494758E-06  8.00573544E-05 -4.45560199E-07
  5.29616574E-05 -1.45356335E-05  4.56571420E-04  2.63414895E-04 -1.32245652E-04
  8.74154341E-05  9.40009255E-04  1.23232190E-03 -1.03721699E-03  5.75951363E-04
 -8.45136976E-05  1.26777977E-03 -9.94215484E-04  5.00650022E-04 -2.55423390E-04
 -1.30640398E-04 -1.28203222E-04  1.00488703E-04 -6.28142854E-05  2.19628689E-05
 -6.18367408E-03 -2.49512025E-04 -1.60929329E-05  4.79807950E-05 -2.40956351E-05
  7.78261802E-04 -2.42145312E-04 -2.99765719E-04  1.22793666E-04  4.46471369E-04
  6.31154240E-05  8.79694664E-05  1.46614318E-05 -7.50163711E-05 -2.17902059E-05
 -6.46014926E-05  1.03646367E-04 -5.28413780E-05 -2.12671479E-05  9.94646657E-01
  2.08926179E-02 -1.28954017E-03  3.68603756E-04 -3.00831916E-04  3.96377848E-03
  1.31537987E-03 -3.79643483E-04  2.98985639E-04 -2.60341747E-03 -2.52597419E-04
  5.13040722E-05 -7.06386456E-05 -4.16875849E-03 -4.02769695E-03 -4.09581672E-03
  5.09703368E-05 -2.62641824E-05 -4.20426883E-05 -2.28254853E-06  2.01754618E-05
 -1.95747281E-05 -3.02949670E-05  1.77281434E-05 -7.37623771E-05 -7.00779650E-04
  8.73928464E-04 -4.37057320E-04 -8.00771933E-03 -9.97473712E-04  3.74826901E-03
 -1.65563394E-03 -8.11825021E-05  1.53609723E-05 -2.42649077E-05  1.04725214E-05
 -2.29872917E-05 -8.80170402E-06 -1.85517120E-06  2.62722434E-06 -5.10026460E-06
 -2.52108781E-06 -1.83514232E-06 -6.08125358E-05  1.14143303E-05 -1.19701521E-05
 -3.92970497E-05  2.31970828E-04  6.06875327E-05 -8.50106794E-05  1.09306754E-04
  6.78305711E-06 -1.24999956E-05 -1.60596740E-05 -3.89464125E-06 -7.36342009E-07
 -1.25014848E-05 -2.47709531E-06  9.45604721E-06 -6.54826204E-06  1.85797912E-05
 -7.76335655E-06  8.70154384E-04 -6.95305876E-06  2.91965551E-04 -1.85295232E-04
  8.95777463E-03 -5.84802554E-04  1.47021013E-03 -9.21441775E-04 -3.87375165E-05
 -7.26490805E-06 -7.70068268E-07 -8.18584456E-06 -3.72831384E-06 -1.25348943E-06
  1.23317596E-05  9.11002682E-05  2.30538737E-05  8.67535518E-06 -1.59643534E-06
 -6.01863668E-04 -2.74969020E-04 -9.97705413E-05  4.93882945E-05 -5.75628913E-05
 -3.33805439E-05 -2.52608903E-04  1.91990329E-04  5.26650184E-05  6.57237001E-05
  5.67878698E-05 -1.11408630E-05  6.66937885E-06 -4.02151796E-06  1.62696246E-06
  9.78298603E-06 -7.25414562E-06 -1.24148888E-05  8.49271776E-06 -1.89233467E-04
 -4.90077674E-05 -4.65025432E-05  2.83812590E-06 -5.15481007E-05 -3.66641077E-05
  1.97609943E-05 -1.37827105E-05 -1.41158563E-06 -4.90542593E-06  4.82619958E-06
 -6.22596233E-06  3.81589407E-06  4.72002373E-06  1.27283362E-06  1.99745744E-04
 -1.80988626E-06 -5.25959484E-05  1.72717210E-05 -1.36402741E-04 -1.47628658E-07
  5.96575456E-07 -8.97456383E-07  2.84784711E-06  8.51378421E-06 -6.52183909E-05
 -1.65887562E-05  1.26727300E-05 -9.91836492E-07 -2.00085461E-04 -3.60232967E-05
  5.29824889E-05  2.74675257E-05  2.14524624E-06 -1.77000188E-06 -3.81880833E-06
  2.48164103E-07 -7.22074057E-08 -2.24290410E-06 -2.65654304E-06 -1.24917334E-06
 -3.71740048E-06 -2.81650242E-07  1.15562309E-06 -1.10056844E-05 -1.37710309E-05
  4.55931977E-04 -2.89978283E-05  2.07949024E-04 -9.79241419E-05  7.76258761E-04
 -5.11725254E-04  1.25883265E-03 -6.57005686E-04  2.22389241E-03 -9.35719753E-04
  7.70130432E-04 -4.77080525E-04 -1.10132259E-04 -3.84007889E-04 -1.82835063E-04
  6.49487680E-05 -2.83541697E-05  1.51715897E-04  9.94620497E-01  2.08971154E-02
  1.13774402E-04 -1.30671220E-03  6.03555624E-04  4.31292335E-03 -8.21672961E-05
  1.11650192E-03 -5.31111780E-04 -2.90914478E-03  1.44924768E-04 -1.11570142E-04
  2.77298235E-05 -4.04981287E-03 -4.12757693E-03 -4.20870871E-03 -1.15805671E-06
  2.58157874E-05 -5.05375649E-05  6.13662140E-03  4.66027251E-06  3.22722669E-05
 -2.28259972E-05  1.25404444E-05  7.84618055E-04 -3.75979277E-04 -1.02000849E-04
  2.42396683E-05  3.63697994E-04  9.85343648E-05  3.45356281E-05  5.02730016E-06
  1.25119290E-06 -1.74842189E-04 -1.44149497E-04  5.74625132E-05 -1.81099681E-05
  2.85800314E-05 -2.29768849E-06  2.57996172E-05 -4.22796292E-05 -1.85216819E-05
 -8.29314993E-06 -1.96368005E-04  9.08189918E-04 -4.38127763E-04  2.69954776E-04
 -5.65288915E-03  5.38751962E-06  2.81414223E-04 -1.35154900E-04 -7.37051235E-06
 -7.59129895E-05 -2.09422903E-05 -2.99895944E-05  3.33659459E-05  2.17593601E-05
  6.49584371E-06 -3.40774623E-06  2.05412065E-06  1.29117950E-06  6.23837957E-06
  4.16543293E-05  1.88312002E-05  1.76581059E-05  3.90920009E-05 -1.25077827E-04
  3.04339760E-05 -9.95428691E-05 -2.51054951E-05 -7.67728719E-07  1.57957625E-05
  2.29266888E-05  1.06340762E-05  7.28785324E-06  7.81905393E-06 -1.24753895E-05
 -4.92012267E-05 -1.96604612E-05 -2.54211402E-05  9.36155924E-06 -1.91843745E-04
 -4.00848445E-05 -5.20318263E-06  9.21106401E-06  3.36664574E-03  7.72860268E-05
  7.53869731E-04 -3.93942017E-04  3.14906415E-07 -1.40085598E-05 -2.79078245E-05
 -2.06647352E-05  1.94006689E-05 -1.42120653E-05 -1.30836056E-05 -9.48626602E-05
 -2.07249962E-05  2.96085826E-06  1.96981876E-06  5.92869465E-04  3.11527274E-04
 -7.20748211E-06 -3.31787960E-05  7.85349674E-04  3.17890520E-04  1.16705889E-04
 -1.36107647E-04 -2.63794391E-05 -5.23425930E-05 -5.77845463E-05 -5.95011506E-07
 -3.92333933E-06 -2.44678732E-06 -1.43198915E-06 -7.58111941E-06 -3.88161108E-06
  5.02186038E-06 -8.17554011E-07  9.24375790E-05  1.48701754E-05  4.37101616E-05
 -7.67861018E-06  6.98050841E-04  2.16608517E-04  7.47534987E-05 -3.47034297E-05
 -5.55731405E-06  8.18013519E-06 -6.56290009E-06  1.31354491E-06 -5.99615007E-07
 -4.90866882E-06  5.53959587E-06 -2.08877593E-04  1.04742700E-05 -1.58240050E-06
 -1.55227600E-06  1.01656715E-04 -1.52545870E-06 -3.17471097E-06 -1.42176620E-06
 -1.67674635E-06 -2.35617445E-06  7.25735225E-05 -1.37766959E-06 -2.85953554E-05
 -2.07306193E-05 -8.67487315E-05 -3.85236327E-05 -4.82123601E-06  1.36882894E-05
 -7.67513505E-06 -4.36076292E-07 -1.88738036E-06 -1.20020196E-06 -6.50570958E-07
  5.01466333E-06 -2.27408564E-06  3.74380392E-05  8.92931261E-06  5.57345670E-06
 -3.73335959E-06  8.93040372E-05  9.96146492E-01  2.67883737E-02 -2.29478625E-04
 -3.28136151E-04  6.92345096E-05 -1.61127032E-02  2.93347756E-03  1.00425411E-03
  8.67145998E-05 -1.85008803E-02  4.50713756E-03  2.33481180E-03 -5.06377267E-04
 -7.07408505E-04 -7.64859975E-04 -1.39720998E-03 -1.94761319E-04  1.88738018E-04
 -4.67057251E-04 -2.06051434E-04  4.78233333E-04  1.79323856E-05 -2.23527989E-04
  1.03350240E-04 -9.22475891E-04 -1.91548469E-04  1.05061324E-04 -9.53147070E-05
  4.76832686E-03 -9.09512968E-04 -1.83322057E-03  8.80540581E-04  1.66411394E-04
  2.01077329E-04  3.02396508E-04  1.04411421E-05 -5.47928152E-05  9.41073164E-05
 -1.31001390E-04  5.92237858E-04 -1.82851388E-04  8.35744289E-05 -4.20581641E-05
 -1.90261923E-03  6.03749409E-04 -4.18559435E-04  1.56681655E-04  3.97442377E-03
 -2.24832742E-03 -2.49463950E-05 -1.27963695E-04  3.88784651E-05  2.36031979E-04
  3.86766932E-04  1.34091153E-04 -8.79211136E-05  9.83253153E-05  7.21024837E-03
  5.94664352E-04 -6.13428989E-05 -4.79847729E-06 -1.03331199E-05  2.99414029E-03
  1.88386116E-03  1.76399764E-03 -4.55822666E-04  2.79746342E-02  4.70431091E-03
  7.82537585E-04  1.93532127E-05 -5.69723464E-04 -2.69626349E-04 -1.24640280E-04
 -2.75993650E-04  5.17248880E-05  7.72030170E-05 -1.27622926E-07  2.94622338E-05
 -3.36127216E-05 -2.33807732E-05  4.28601354E-06 -2.90022681E-04 -3.47547919E-05
 -2.79698115E-05 -2.60690109E-04  1.06351283E-03 -3.59684223E-05  3.14124759E-04
  2.89766073E-04  3.44465204E-06 -4.40781739E-05 -4.78865783E-05 -1.22144721E-05
 -9.08393210E-06 -1.12714536E-05  2.00646517E-04 -1.34565261E-04  2.38335793E-05
  4.61752729E-05 -3.69761745E-05 -1.91122312E-05 -3.04541300E-04  3.24645052E-05
  5.72244663E-05 -1.16104867E-02  5.09544459E-04 -2.68548568E-03  1.51436647E-03
  1.31769130E-04  1.30132114E-04  4.56171082E-06  6.10833143E-05 -8.68513375E-06
 -6.61680963E-05 -8.00560891E-07 -1.99789435E-05 -1.60244039E-05  3.36465458E-05
 -1.51305398E-05 -1.54068404E-05 -9.03001227E-07 -3.89152861E-04  2.03616845E-04
 -2.51336202E-03  6.66929158E-04 -6.64960503E-04 -1.66261757E-04  7.87044097E-06
  2.31842612E-05 -4.31089481E-05 -1.03894924E-04  2.78890191E-05 -3.97301422E-06
 -4.53084015E-05 -1.16441840E-04 -1.57388078E-05 -1.93806480E-05 -8.45439646E-06
  6.49340286E-04  7.21738597E-05  3.04485550E-04  3.88677044E-05  1.36500056E-03
  3.68146026E-04  8.61517603E-05  4.13689411E-05 -4.69750831E-05 -1.20918473E-05
 -5.61712712E-05  1.80794711E-05  2.38190819E-06 -1.24046216E-05 -2.62515042E-05
  9.17492969E-04 -2.70885975E-05 -9.68748785E-05  2.75444892E-06 -8.12205920E-04
 -1.60330289E-05 -6.36846399E-05  7.39419383E-06  2.28141495E-05  1.83313041E-05
  1.54595688E-04  1.97063609E-05 -1.39577951E-04  5.02118586E-05  1.60736381E-04
  1.04589513E-04  4.20722750E-05 -1.47594793E-04 -1.97434628E-05 -2.71109969E-06
 -2.99949540E-05 -5.60293521E-06 -6.50746493E-06 -1.52763941E-05  4.08028898E-05
 -3.96198745E-04 -6.31596727E-05 -3.78353822E-04  4.84447293E-05 -9.08510997E-04
 -7.48057644E-03 -1.07829272E-04 -5.65669201E-05 -5.07620794E-05  1.54794523E-05
  3.38638157E-03 -2.66772217E-03 -2.49202294E-04 -4.96737014E-04 -2.14763330E-02
  2.50773073E-03  2.72053482E-03 -2.94418163E-04 -3.92298266E-04 -2.81602707E-04
 -1.10148689E-04 -1.88697954E-04  8.68880328E-05  1.07033340E-04 -3.38861523E-06
 -9.57581462E-05  2.23758573E-05  2.68065258E-05 -2.01075868E-05 -2.22891039E-04
  3.36654286E-04  1.50527498E-04  4.78259011E-05 -1.55612140E-03  5.24863861E-04
  5.96925221E-04 -3.62209316E-04  2.62192550E-06  1.88432892E-05 -8.32423227E-05
 -2.56951909E-05  5.40708829E-05 -8.85904314E-05 -1.68077119E-05 -1.66746914E-04
  3.67055086E-05 -1.56384621E-05  3.35964230E-06  8.92465093E-04 -2.61259426E-04
  3.18773769E-04 -1.00759772E-04  3.34219571E-04  2.52566835E-04  5.10503828E-04
 -1.52247407E-04 -7.16430944E-06 -1.00669100E-05 -9.45881628E-05 -5.43852816E-05
  2.55303514E-05 -4.25670068E-05  9.95397296E-01  2.90170679E-02 -1.57090733E-03
  5.68364014E-04 -4.08689977E-04 -2.33571406E-02  2.34539211E-03 -1.02934404E-03
  1.45820514E-03 -4.57376134E-03  1.79808721E-02  8.36397339E-03 -3.62083027E-03