
Running Job 1 of 3 ts_kari2.qcin
qchem ts_kari2.qcin_27171.0 /tmp/ts_kari2.qcin/ 1
/programs/x86_64/lib/qchem-4.3.2/bin/mpi/mpirun_qchem -machinefile /programs/x86_64/lib/qchem-4.3.2/bin/mpi/machines -np 1 /programs/x86_64/lib/qchem-4.3.2/exe/qcprog.exe ts_kari2.qcin_27171.0 /tmp/ts_kari2.qcin/

Process 0 of 1 is on fock - thread support 0
initial socket setup ...start
initial socket setup ...done 
now start server 0 ... 

cmd = ssh thor /programs/x86_64/lib/qchem-4.3.2/bin/get_hostid 1977512302 > /tmp/ts_kari2.qcin/lic.dat
                  Welcome to Q-Chem
     A Quantum Leap Into The Future Of Chemistry


 Q-Chem 4.3, Q-Chem, Inc., Pleasanton, CA (2015)

 Y. Shao,  Z. Gan,  E. Epifanovsky,  A. T. B. Gilbert,  M. Wormit,  
 J. Kussmann,  A. W. Lange,  A. Behn,  J. Deng,  X. Feng,  D. Ghosh,  
 M. Goldey,  P. R. Horn,  L. D. Jacobson,  I. Kaliman,  R. Z. Khaliullin,  
 T. Kus,  A. Landau,  J. Liu,  E. I. Proynov,  Y. M. Rhee,  R. M. Richard,  
 M. A. Rohrdanz,  R. P. Steele,  E. J. Sundstrom,  H. L. Woodcock III,  
 P. M. Zimmerman,  D. Zuev,  B. Albrecht,  E. Alguire,  B. Austin,  
 S. A. Baeppler,  G. J. O. Beran,  Y. A. Bernard,  E. Berquist,  
 K. Brandhorst,  K. B. Bravaya,  S. T. Brown,  D. Casanova,  C.-M. Chang,  
 Y. Chen,  S. H. Chien,  K. D. Closser,  D. L. Crittenden,  M. Diedenhofen,  
 R. A. DiStasio Jr.,  H. Do,  A. D. Dutoi,  R. G. Edgar,  P.-T. Fang,  
 S. Fatehi,  Q. Feng,  L. Fusti-Molnar,  A. Ghysels,  
 A. Golubeva-Zadorozhnaya,  J. Gomes,  A. Gunina,  M. W. D. Hanson-Heine,  
 P. H. P. Harbach,  A. W. Hauser,  E. G. Hohenstein,  Z. C. Holden,  K. Hui,  
 T.-C. Jagau,  H. Ji,  B. Kaduk,  K. Khistyaev,  Jaehoon Kim,  Jihan Kim,  
 R. A. King,  P. Klunzinger,  D. Kosenkov,  T. Kowalczyk,  C. M. Krauter,  
 K. U. Lao,  A. Laurent,  K. V. Lawler,  S. Lehtola,  S. V. Levchenko,  
 C. Y. Lin,  Y.-S. Lin,  F. Liu,  E. Livshits,  R. C. Lochan,  A. Luenser,  
 P. Manohar,  S. F. Manzer,  S.-P. Mao,  N. Mardirossian,  A. V. Marenich,  
 L. A. Martinez-Martinez,  S. A. Maurer,  N. J. Mayhall,  K. Nanda,  
 C. M. Oana,  R. Olivares-Amaya,  D. P. O'Neill,  J. A. Parkhill,  
 T. M. Perrine,  R. Peverati,  P. A. Pieniazek,  F. Plasser,  A. Prociuk,  
 D. R. Rehn,  E. Rosta,  N. J. Russ,  N. Sergueev,  S. M. Sharada,  
 S. Sharma,  D. W. Small,  A. Sodt,  T. Stauch,  T. Stein,  D. Stuck,  
 Y.-C. Su,  A. J. W. Thom,  T. Tsuchimochi,  L. Vogt,  O. Vydrov,  T. Wang,  
 M. A. Watson,  J. Wenzel,  A. White,  C. F. Williams,  V. Vanovschi,  
 S. Yeganeh,  S. R. Yost,  Z.-Q. You,  I. Y. Zhang,  X. Zhang,  Y. Zhao,  
 B. R. Brooks,  G. K. L. Chan,  D. M. Chipman,  C. J. Cramer,  
 W. A. Goddard III,  M. S. Gordon,  W. J. Hehre,  A. Klamt,  
 H. F. Schaefer III,  M. W. Schmidt,  C. D. Sherrill,  D. G. Truhlar,  
 A. Warshel,  X. Xu,  A. Aspuru-Guzik,  R. Baer,  A. T. Bell,  N. A. Besley,  
 J.-D. Chai,  A. Dreuw,  B. D. Dunietz,  T. R. Furlani,  S. R. Gwaltney,  
 C.-P. Hsu,  Y. Jung,  J. Kong,  D. S. Lambrecht,  W. Liang,  C. Ochsenfeld,  
 V. A. Rassolov,  L. V. Slipchenko,  J. E. Subotnik,  T. Van Voorhis,  
 J. M. Herbert,  A. I. Krylov,  P. M. W. Gill,  M. Head-Gordon

 Contributors to earlier versions of Q-Chem not listed above: 
 R. D. Adamson,  J. Baker,  E. F. C. Byrd,  A. K. Chakraborty,  C.-L. Cheng,  
 H. Dachsel,  R. J. Doerksen,  G. Hawkins,  A. Heyden,  S. Hirata,  
 G. Kedziora,  F. J. Keil,  C. Kelley,  P. P. Korambath,  W. Kurlancheek,  
 A. M. Lee,  M. S. Lee,  D. Liotard,  I. Lotan,  P. E. Maslen,  N. Nair,  
 D. Neuhauser,  R. Olson,  B. Peters,  J. Ritchie,  N. E. Schultz,  
 N. Shenvi,  A. C. Simmonett,  K. S. Thanthiriwatte,  Q. Wu,  W. Zhang

 Please cite Q-Chem as follows:
 Y. Shao et al., Mol. Phys. 113, 184-215 (2015)
 DOI: 10.1080/00268976.2014.952696

 Q-Chem 4.3.0 for Intel X86 Linux

 Parts of Q-Chem use Armadillo 5.200.1 (Boston Tea Smuggler).
 http://arma.sourceforge.net/

 Q-Chem begins on Thu Apr 27 12:17:15 2017  

Host: 
0

     Scratch files written to /tmp/ts_kari2.qcin//
 Oct1215 13750_ 19228  19214 4150   
 Parallel job on  1  processors
Processing $rem in /programs/x86_64/lib/qchem-4.3.2/config/preferences.
 MEM_TOTAL  2000 

Checking the input file for inconsistencies... 	...done.

--------------------------------------------------------------
User input:
--------------------------------------------------------------
$comment
Title
$end

$molecule
-2 1
C        3.457         -1.303          2.639
O        4.585         -1.568          2.152
O        3.156         -1.669          3.838
C        2.431         -0.611          1.760
O        2.048         -1.964          0.324
C        1.323         -0.391          2.447
O        2.490          0.068          0.516
C        1.481          0.694          0.023
H        3.695          0.184         -0.328
H        3.485         -0.146         -1.481
H        4.489         -0.484          0.104
C        4.132          1.211         -0.539
H        1.160         -1.639         -0.299
H        1.810         -2.780          1.053
H        3.012         -2.165         -0.257
$end

$rem
JOBTYPE FREQ
EXCHANGE HF
BASIS 6-31+G(d)
GUI=2
$end

--------------------------------------------------------------
 ----------------------------------------------------------------
             Standard Nuclear Orientation (Angstroms)
    I     Atom           X                Y                Z
 ----------------------------------------------------------------
    1      C       1.4811690632     0.4049027665     0.1362873593
    2      O       1.3722717827     1.5292350721    -0.4148897891
    3      O       2.6401755856    -0.0627561798     0.4527632524
    4      C       0.2270191616    -0.4226712704     0.3517177141
    5      O      -0.3909120679    -0.8407457258    -1.5145000506
    6      C       0.5322755298    -1.5536270632     0.9647352867
    7      O      -1.1631486252    -0.1460477743     0.2972111448
    8      C      -2.0520178188    -1.0048325432     0.6513386323
    9      H      -1.7537091431     1.1423738790    -0.1139152567
   10      H      -2.6088693507     1.0064540903    -0.9698567444
   11      H      -0.9298036457     1.7896872914    -0.5206695774
   12      C      -2.3739483453     1.7350331344     0.6305827883
   13      H      -1.2230640360    -1.6084422898    -1.4929805836
   14      H       0.5988287502    -1.2606130232    -1.8276542708
   15      H      -0.6374615195     0.1402267707    -2.0475707111
 ----------------------------------------------------------------
 Molecular Point Group                 C1    NOp =  1
 Largest Abelian Subgroup              C1    NOp =  1
 Nuclear Repulsion Energy =   443.0790093247 hartrees
 There are       35 alpha and       35 beta electrons
 Requested basis set is 6-31+G(d)
 There are 57 shells and 183 basis functions

 Total QAlloc Memory Limit   2000 MB
 Mega-Array Size        61 MB
 MEM_STATIC part        62 MB

                       Distance Matrix (Angstroms)
             C (  1)   O (  2)   O (  3)   C (  4)   O (  5)   C (  6)
   O (  2)  1.256892
   O (  3)  1.289247  2.212428
   C (  4)  1.517953  2.389399  2.441940
   O (  5)  2.789521  3.151947  3.696334  2.009824
   C (  6)  2.328640  3.480373  2.632120  1.322132  2.739906
   O (  7)  2.705893  3.121220  3.807415  1.418470  2.088361  2.302462
   C (  8)  3.838755  4.391367  4.789950  2.371222  2.734420  2.660445
   H (  9)  3.327297  3.164175  4.591262  2.566995  2.784173  3.695624
   H ( 10)  4.279466  4.053489  5.542520  3.439654  2.937366  4.490373
   H ( 11)  2.856923  2.319176  4.138100  2.644585  2.863089  3.939778
   C ( 12)  4.107981  3.894808  5.329644  3.390942  3.894669  4.401486
   H ( 13)  3.744456  4.212252  4.593439  2.629012  1.132386  3.020693
   H ( 14)  2.722046  3.221393  3.286679  2.364329  1.119795  2.808510
   H ( 15)  3.054159  2.938370  4.127442  2.611660  1.143354  3.648481
             O (  7)   C (  8)   H (  9)   H ( 10)   H ( 11)   C ( 12)
   C (  8)  1.285693
   H (  9)  1.475743  2.298934
   H ( 10)  2.241390  2.642656  1.217542
   H ( 11)  2.114344  3.231456  1.123959  1.906433
   C ( 12)  2.261778  2.758792  1.135878  1.774098  1.847680
   H ( 13)  2.312352  2.376892  3.122562  3.005295  3.546643  4.124668
   H ( 14)  2.976890  3.638381  3.774345  4.020539  3.653664  4.884079
   H ( 15)  2.419980  3.255187  2.447311  2.407959  2.266630  3.568095
             H ( 13)   H ( 14)
   H ( 14)  1.884751
   H ( 15)  1.925706  1.881257
 
 A cutoff of  1.0D-11 yielded   1534 shell pairs
 There are     16476 function pairs
 
 -------------------------------------------------------
 OpenMP Integral Computing Module                       
 Release: version 1.0, May 2013, Q-Chem Inc. Pittsburgh 
 -------------------------------------------------------
 Integral Job Info:
 Integral job number is                      11
 Integral operator is                         1
 short-range coefficients                     0
 long-range coefficients              100000000
 Omega coefficients                           0
 if combine SR and LR in K                    0
 Integral screening is                        0
 Integral computing path is                   2
 max size of driver memory is            800000
 size of driver memory is                593474
 size of scratch memory is              2260544
 max col of scratch BK array               1296
 max len of scratch array in speh3          155
 max len of scratch index in speh4           18
 max int batch size is                      520
 min int batch size is                       52
 fixed nKL is                                52
 max L of basis functions is                  2
 order of int derivative is                   0
 number of shells is                         57
 number of basis is                         183
 number of cartesian basis is               183
 number of contracted shell pairs          1534
 number of primitive shell pairs           5263
 maxK2 (contraction) of shell pair           36
 max number of K2 of shell pair               1
 max number of CS2 of shell pair            188
 max number of PS2 of shell pair           1128
 mem total for path MDJ                   43256
 -------------------------------------------------------
 Smallest overlap matrix eigenvalue = 1.92E-05
 Guess from superposition of atomic densities
 Warning:  Energy on first SCF cycle will be non-variational
 A restricted Hartree-Fock SCF calculation will be
 performed using Pulay DIIS extrapolation
 SCF converges when DIIS error is below 1.0E-08
 ---------------------------------------
  Cycle       Energy         DIIS Error
 ---------------------------------------
    1    -492.7831436023      4.86E-02
    2    -490.5577611192      9.68E-03
    3    -489.4371851997      1.64E-02
    4    -490.9605314856      4.62E-03
    5    -491.0973239104      1.33E-03
    6    -491.1204025171      1.03E-03
    7    -491.1338205780      1.00E-03
    8    -491.1471358318      7.66E-04
    9    -491.1588882513      4.32E-04
   10    -491.1656068734      1.88E-04
   11    -491.1677948210      1.27E-04
   12    -491.1687996042      1.02E-04
   13    -491.1695378459      7.06E-05
   14    -491.1700353829      6.60E-05
   15    -491.1704482753      5.33E-05
   16    -491.1709389784      3.92E-05
   17    -491.1712650395      3.75E-05
   18    -491.1714210652      2.55E-05
   19    -491.1715572153      2.10E-05
   20    -491.1716412874      1.39E-05
   21    -491.1716772697      7.79E-06
   22    -491.1716861447      4.83E-06
   23    -491.1716881491      2.21E-06
   24    -491.1716883867      1.60E-06
   25    -491.1716884501      7.94E-07
   26    -491.1716884662      4.28E-07
   27    -491.1716884735      2.51E-07
   28    -491.1716884756      1.13E-07
   29    -491.1716884760      6.10E-08
   30    -491.1716884760      6.49E-08
   31    -491.1716884762      1.71E-08
   32    -491.1716884764      8.95E-09 Convergence criterion met
 ---------------------------------------
 SCF time:  CPU 61.90 s  wall 69.72 s
 SCF   energy in the final basis set = -491.1716884764
 Total energy in the final basis set = -491.1716884764
 
 --------------------------------------------------------------
 
                    Orbital Energies (a.u.)
 --------------------------------------------------------------
 
 Alpha MOs
 -- Occupied --
-20.472 -20.379 -20.246 -20.243 -11.102 -11.062 -11.054 -11.036
-10.995  -1.240  -1.182  -1.107  -0.993  -0.820  -0.638  -0.593
 -0.540  -0.526  -0.515  -0.468  -0.384  -0.367  -0.321  -0.320
 -0.293  -0.236  -0.217  -0.166  -0.143  -0.131  -0.125  -0.116
 -0.023   0.033   0.069
 -- Virtual --
  0.268   0.301   0.310   0.317   0.323   0.329   0.344   0.348
  0.356   0.367   0.368   0.375   0.384   0.406   0.408   0.412
  0.423   0.426   0.437   0.456   0.463   0.468   0.479   0.482
  0.509   0.530   0.546   0.559   0.566   0.582   0.592   0.602
  0.609   0.616   0.624   0.639   0.657   0.667   0.689   0.709
  0.738   0.751   0.774   0.783   0.808   0.833   0.856   0.873
  0.890   0.904   0.996   1.029   1.170   1.176   1.218   1.230
  1.251   1.259   1.270   1.282   1.306   1.321   1.338   1.358
  1.375   1.396   1.409   1.421   1.427   1.472   1.503   1.548
  1.562   1.597   1.638   1.680   1.687   1.741   1.766   1.800
  1.813   1.839   1.856   1.873   1.897   1.908   1.910   1.924
  1.945   1.965   1.994   2.011   2.023   2.089   2.136   2.164
  2.178   2.213   2.233   2.273   2.296   2.324   2.331   2.345
  2.368   2.380   2.392   2.425   2.451   2.479   2.515   2.522
  2.566   2.607   2.628   2.668   2.686   2.724   2.761   2.812
  2.849   2.876   2.891   2.921   2.946   3.010   3.012   3.020
  3.165   3.176   3.270   3.306   3.400   3.455   3.579   3.699
  3.736   3.861   3.907   4.771   4.847   4.876   4.948   5.053
  5.086   5.166   5.395   5.412
 --------------------------------------------------------------
 
          Ground-State Mulliken Net Atomic Charges

     Atom                 Charge (a.u.)
  ----------------------------------------
      1 C                     0.519411
      2 O                    -0.469646
      3 O                    -0.776538
      4 C                    -1.805997
      5 O                    -0.486780
      6 C                     0.682644
      7 O                     0.000545
      8 C                    -0.507985
      9 H                    -0.037784
     10 H                    -0.156123
     11 H                    -0.028568
     12 C                    -0.413025
     13 H                     0.408540
     14 H                     0.504956
     15 H                     0.566351
  ----------------------------------------
  Sum of atomic charges =    -2.000000

 -----------------------------------------------------------------
                    Cartesian Multipole Moments
 -----------------------------------------------------------------
    Charge (ESU x 10^10)
                -9.6064
    Dipole Moment (Debye)
         X       6.2920      Y      -5.9026      Z      -4.7854
       Tot       9.8656
    Quadrupole Moments (Debye-Ang)
        XX    -134.9962     XY       6.7378     YY    -108.1444
        XZ      -2.5811     YZ       8.8643     ZZ     -68.4432
    Octopole Moments (Debye-Ang^2)
       XXX     112.6275    XXY     -38.9183    XYY      70.2227
       YYY     -29.7963    XXZ     -17.5232    XYZ       9.0310
       YYZ     -11.7471    XZZ      34.2611    YZZ      -6.8656
       ZZZ     -30.8527
    Hexadecapole Moments (Debye-Ang^3)
      XXXX   -1769.3591   XXXY     137.6827   XXYY    -496.0901
      XYYY     105.8405   YYYY    -928.3666   XXXZ     -12.2790
      XXYZ      14.6303   XYYZ       4.0771   YYYZ      22.3956
      XXZZ    -321.9657   XYZZ      25.8409   YYZZ    -196.2318
      XZZZ      -3.1012   YZZZ      33.8705   ZZZZ    -348.0759
 -----------------------------------------------------------------
 Calculating MO derivatives via CPSCF
   1         3          45      0.337490    0.054355
   2         3          45      0.093664    0.022554
   3         3          45      0.033911    0.008359
   4         3          45      0.014937    0.005857
   5         3          45      0.003254    0.001316
   6         4          44      0.000561    0.000229
   7        38          10      0.000063    0.000032
   8        45           3      0.000007    0.000004
   9        48           0      0.000000    0.000000    Roots Converged
 Calculating analytic Hessian of the SCF energy
 Polarizability Matrix (a.u.)
            1           2           3
    1-190.0719779  17.1032856  31.7034113
    2  17.1032856-171.5089524 -23.1281097
    3  31.7034113 -23.1281097-188.2382046
 
 Direct stationary perturbation theory relativistic correction:
 
 rels  =       0.174686896726
 relv  =      -0.764324640050
 rel2e =       0.291391625215
 E_rel =      -0.298246118109
 
 Hessian of the SCF Energy
            1           2           3           4           5           6
    1   0.5771614  -0.0267861   0.0500417  -0.1183776   0.0019627  -0.0024893
    2  -0.0267861   0.7072910  -0.1930241   0.0064255  -0.4339070   0.1494186
    3   0.0500417  -0.1930241   0.3831295  -0.0056756   0.1521713  -0.1802078
    4  -0.1183776   0.0064255  -0.0056756   0.1445649  -0.0585095   0.0361210
    5   0.0019627  -0.4339070   0.1521713  -0.0585095   0.5307222  -0.2315841
    6  -0.0024893   0.1494186  -0.1802078   0.0361210  -0.2315841   0.1561513
    7  -0.3369999   0.0775839  -0.0579369  -0.0175014   0.0775690  -0.0430452
    8   0.0671821  -0.1443636   0.0212858   0.0876301  -0.0547592   0.0540918
    9  -0.0569383   0.0239738  -0.1257240  -0.0448960   0.0507905   0.0091605
   10  -0.1345946  -0.0686115   0.0232803   0.0030652  -0.0090859   0.0005291
   11  -0.0106515  -0.1373641   0.0196917  -0.0442796  -0.0500181   0.0314035
   12   0.0006385   0.0139802  -0.0833617   0.0178307   0.0340408   0.0100455
   13  -0.0040081  -0.0063642   0.0048781   0.0008865   0.0021810  -0.0056283
   14  -0.0039619  -0.0065589   0.0044978   0.0018580   0.0034664  -0.0027910
   15  -0.0053228   0.0021407  -0.0018752   0.0005852  -0.0002900  -0.0004590
   16   0.0130691  -0.0222367   0.0091352  -0.0050447  -0.0002400  -0.0002970
   17  -0.0167956  -0.0140744   0.0216429   0.0012260   0.0062553  -0.0063963
   18   0.0118248   0.0094775   0.0105143  -0.0021490  -0.0041282   0.0006927
   19   0.0063015   0.0322771  -0.0027425  -0.0010401  -0.0116638   0.0091962
   20  -0.0057764   0.0285087  -0.0189424   0.0002999  -0.0037923   0.0029799
   21   0.0037589  -0.0083960   0.0053483  -0.0010361  -0.0009000  -0.0028051
   22  -0.0047905  -0.0008228  -0.0066976   0.0046147  -0.0011634  -0.0001932
   23  -0.0065229  -0.0082693   0.0030915   0.0045421   0.0044629  -0.0032560
   24   0.0021209   0.0073129  -0.0061894  -0.0011414  -0.0041955   0.0036096
   25  -0.0016975   0.0045246  -0.0023844   0.0028386  -0.0041657   0.0021362
   26   0.0004290   0.0019921   0.0004961   0.0010458  -0.0011585  -0.0019779
   27   0.0004393  -0.0053650   0.0024635  -0.0046096   0.0046884  -0.0026115
   28   0.0006724  -0.0000673   0.0000122   0.0002801   0.0000479   0.0001499
   29   0.0000589  -0.0059932   0.0029732  -0.0020980   0.0040895  -0.0009049
   30   0.0003211  -0.0074737   0.0041572  -0.0037341   0.0047944  -0.0029973
   31   0.0001057  -0.0064036   0.0028651  -0.0156190   0.0069935  -0.0044907
   32   0.0002123  -0.0016754   0.0001274  -0.0001498   0.0029363   0.0000711
   33  -0.0022551   0.0097824  -0.0050918   0.0084392  -0.0062374   0.0070093
   34  -0.0005543   0.0028751  -0.0007792   0.0036986  -0.0015571  -0.0000414
   35  -0.0022630   0.0052866  -0.0034954   0.0049472  -0.0032858   0.0040211
   36  -0.0003177   0.0031694  -0.0018620   0.0011144  -0.0023248   0.0025613
   37   0.0035846   0.0085742  -0.0121634  -0.0022920  -0.0039983   0.0060422
   38   0.0030043   0.0049933  -0.0061008  -0.0020410  -0.0018369   0.0042352
   39   0.0002890  -0.0016265   0.0026667   0.0000637   0.0009830  -0.0010186
   40   0.0013333  -0.0021793   0.0000768   0.0004597   0.0007333  -0.0013448
   41   0.0000347   0.0005849  -0.0035497  -0.0007161   0.0000654   0.0022022
   42  -0.0010319  -0.0045956  -0.0022838  -0.0002569   0.0018822  -0.0006254
   43  -0.0012055   0.0012111  -0.0019099  -0.0005336   0.0008964   0.0033554
   44  -0.0001267   0.0035491  -0.0008653  -0.0001806  -0.0032403  -0.0015132
   45  -0.0010792   0.0012254  -0.0016839  -0.0006554   0.0003096   0.0014944
            7           8           9          10          11          12
    1  -0.3369999   0.0671821  -0.0569383  -0.1345946  -0.0106515   0.0006385
    2   0.0775839  -0.1443636   0.0239738  -0.0686115  -0.1373641   0.0139802
    3  -0.0579369   0.0212858  -0.1257240   0.0232803   0.0196917  -0.0833617
    4  -0.0175014   0.0876301  -0.0448960   0.0030652  -0.0442796   0.0178307
    5   0.0775690  -0.0547592   0.0507905  -0.0090859  -0.0500181   0.0340408
    6  -0.0430452   0.0540918   0.0091605   0.0005291   0.0314035   0.0100455
    7   0.4066329  -0.1491836   0.1029641  -0.0378700   0.0008728  -0.0032417
    8  -0.1491836   0.1863422  -0.0761617  -0.0002056   0.0233358  -0.0030727
    9   0.1029641  -0.0761617   0.1009830  -0.0052169  -0.0020223   0.0136068
   10  -0.0378700  -0.0002056  -0.0052169   0.4327644  -0.0659802   0.0850677
   11   0.0008728   0.0233358  -0.0020223  -0.0659802   0.7084339  -0.2960350
   12  -0.0032417  -0.0030727   0.0136068   0.0850677  -0.2960350   0.3344876
   13   0.0018635   0.0008343  -0.0022073  -0.0011266   0.0095526  -0.0177469
   14   0.0034016   0.0011173  -0.0021642  -0.0077385   0.0137221  -0.0174223
   15   0.0000508  -0.0024840   0.0006738  -0.0102154  -0.0002766  -0.0670183
   16  -0.0032163   0.0021646  -0.0013592  -0.0454105   0.1127320  -0.0558061
   17   0.0000994  -0.0039774  -0.0008211   0.1066487  -0.4633965   0.2327350
   18  -0.0006387   0.0040310  -0.0030979  -0.0707033   0.2293972  -0.1559917
   19  -0.0161595  -0.0036710   0.0022444  -0.1443139   0.0173597  -0.0422400
   20  -0.0187140  -0.0061041   0.0047037   0.0546482  -0.0784155   0.0238426
   21   0.0044207   0.0039699   0.0006060  -0.0524848   0.0142259  -0.0323694
   22   0.0062674  -0.0022514   0.0007633  -0.0679387  -0.0195014   0.0147410
   23   0.0111805   0.0008730  -0.0014341  -0.0288421  -0.0011916   0.0049159
   24  -0.0048102  -0.0034133   0.0031797   0.0183853   0.0079358  -0.0089325
   25   0.0025821  -0.0017549   0.0008965  -0.0051643   0.0064049  -0.0051336
   26  -0.0000374  -0.0002432  -0.0000422   0.0078123  -0.0037173   0.0001689
   27  -0.0023886   0.0020742  -0.0008816   0.0021281  -0.0001888   0.0041910
   28  -0.0004101  -0.0001069  -0.0001460   0.0010032   0.0003092   0.0006281
   29   0.0001398   0.0022190  -0.0008638  -0.0021687  -0.0021504  -0.0012981
   30  -0.0002790   0.0028351  -0.0013564  -0.0000243  -0.0042405  -0.0041711
   31  -0.0028461   0.0027483  -0.0011829   0.0033572  -0.0024296   0.0057222
   32  -0.0009829   0.0002966  -0.0000630  -0.0032433   0.0024676   0.0035372
   33   0.0037724  -0.0037277   0.0019113  -0.0052051   0.0052879  -0.0050239
   34   0.0005416  -0.0012397   0.0003274  -0.0040748   0.0033371   0.0022791
   35   0.0020361  -0.0017985   0.0010961   0.0019197  -0.0015997  -0.0028732
   36   0.0008034  -0.0012092   0.0003964   0.0028118  -0.0009502  -0.0000784
   37  -0.0049818  -0.0029991   0.0040522   0.0063965  -0.0094907   0.0038191
   38  -0.0035787  -0.0010717   0.0023151   0.0125469  -0.0123490  -0.0018068
   39   0.0002880   0.0008947  -0.0008045   0.0025287  -0.0013527   0.0034092
   40   0.0004348   0.0009474   0.0004050  -0.0045599   0.0020157   0.0008859
   41   0.0000148  -0.0003363   0.0009598   0.0024952   0.0010127  -0.0019986
   42  -0.0001287   0.0010954   0.0008265   0.0092891  -0.0057609  -0.0036225
   43   0.0016629  -0.0000945   0.0002937  -0.0015329  -0.0002509  -0.0074437
   44  -0.0004012  -0.0015300  -0.0002664  -0.0001950   0.0012300   0.0112864
   45   0.0001697  -0.0002093   0.0005204  -0.0001702   0.0028851  -0.0051705
           13          14          15          16          17          18
    1  -0.0040081  -0.0039619  -0.0053228   0.0130691  -0.0167956   0.0118248
    2  -0.0063642  -0.0065589   0.0021407  -0.0222367  -0.0140744   0.0094775
    3   0.0048781   0.0044978  -0.0018752   0.0091352   0.0216429   0.0105143
    4   0.0008865   0.0018580   0.0005852  -0.0050447   0.0012260  -0.0021490
    5   0.0021810   0.0034664  -0.0002900  -0.0002400   0.0062553  -0.0041282
    6  -0.0056283  -0.0027910  -0.0004590  -0.0002970  -0.0063963   0.0006927
    7   0.0018635   0.0034016   0.0000508  -0.0032163   0.0000994  -0.0006387
    8   0.0008343   0.0011173  -0.0024840   0.0021646  -0.0039774   0.0040310
    9  -0.0022073  -0.0021642   0.0006738  -0.0013592  -0.0008211  -0.0030979
   10  -0.0011266  -0.0077385  -0.0102154  -0.0454105   0.1066487  -0.0707033
   11   0.0095526   0.0137221  -0.0002766   0.1127320  -0.4633965   0.2293972
   12  -0.0177469  -0.0174223  -0.0670183  -0.0558061   0.2327350  -0.1559917
   13   0.2417605  -0.0823043  -0.0609515  -0.0006471  -0.0113052  -0.0020604
   14  -0.0823043   0.1860599   0.0307344   0.0015489  -0.0065720   0.0136441
   15  -0.0609515   0.0307344   0.3264144  -0.0045758  -0.0060880  -0.0116932
   16  -0.0006471   0.0015489  -0.0045758   0.0775412  -0.1216373   0.0718000
   17  -0.0113052  -0.0065720  -0.0060880  -0.1216373   0.4714902  -0.2536552
   18  -0.0020604   0.0136441  -0.0116932   0.0718000  -0.2536552   0.1634308
   19  -0.0142712   0.0311435   0.0458557  -0.0373318   0.0148589   0.0056809
   20   0.0327372   0.0654419  -0.0387524   0.0245600  -0.0065244   0.0160197
   21   0.0498100  -0.0450290  -0.0755562  -0.0135611   0.0039290  -0.0028821
   22   0.0004026  -0.0352046   0.0077520   0.0013112   0.0114947  -0.0018878
   23  -0.0058135  -0.0454296   0.0005258   0.0025207   0.0078684  -0.0085284
   24   0.0361344   0.0395164  -0.0192759  -0.0018506   0.0088896  -0.0000218
   25  -0.0002003  -0.0114696   0.0029133   0.0004755  -0.0016917   0.0015498
   26  -0.0043289   0.0060692  -0.0014970  -0.0017319  -0.0003041  -0.0004239
   27   0.0019877   0.0099523  -0.0016320  -0.0012012   0.0014447  -0.0011316
   28  -0.0019577   0.0070712  -0.0016858  -0.0001573   0.0000416  -0.0002489
   29  -0.0019662  -0.0087240   0.0034559   0.0010660  -0.0029300   0.0015054
   30  -0.0024910  -0.0089196   0.0037758   0.0006212  -0.0032366   0.0019441
   31   0.0028989   0.0176361  -0.0013041   0.0000332   0.0014252  -0.0019302
   32   0.0087520   0.0011469  -0.0032280   0.0000684   0.0015479  -0.0017592
   33   0.0003008  -0.0171323   0.0008675  -0.0000051   0.0001156   0.0012317
   34   0.0032811   0.0161144  -0.0065828   0.0010571   0.0012709  -0.0015160
   35   0.0017167  -0.0182654   0.0016284  -0.0016238   0.0009101   0.0001246
   36  -0.0011341  -0.0059128   0.0007826  -0.0012210   0.0002771   0.0004519
   37  -0.0120518   0.0644096  -0.0149878   0.0000440   0.0192534  -0.0080386
   38   0.0332016  -0.0267390  -0.0030472   0.0009919   0.0095412  -0.0034368
   39  -0.0438423  -0.0379379  -0.0224017   0.0007968  -0.0021336  -0.0001278
   40  -0.1133461   0.0250191   0.0351353  -0.0016086  -0.0025737  -0.0023973
   41   0.0056779  -0.1190142   0.0049083   0.0012184  -0.0011386   0.0006023
   42   0.0441170   0.0022892  -0.0629292  -0.0011177   0.0025821  -0.0006434
   43  -0.1034842  -0.0275236   0.0133338  -0.0001150  -0.0023151   0.0007147
   44   0.0174290  -0.0457208   0.0122696   0.0005987   0.0013043  -0.0028702
   45  -0.0011661   0.0366748  -0.0696734  -0.0013584   0.0007147  -0.0026759
           19          20          21          22          23          24
    1   0.0063015  -0.0057764   0.0037589  -0.0047905  -0.0065229   0.0021209
    2   0.0322771   0.0285087  -0.0083960  -0.0008228  -0.0082693   0.0073129
    3  -0.0027425  -0.0189424   0.0053483  -0.0066976   0.0030915  -0.0061894
    4  -0.0010401   0.0002999  -0.0010361   0.0046147   0.0045421  -0.0011414
    5  -0.0116638  -0.0037923  -0.0009000  -0.0011634   0.0044629  -0.0041955
    6   0.0091962   0.0029799  -0.0028051  -0.0001932  -0.0032560   0.0036096
    7  -0.0161595  -0.0187140   0.0044207   0.0062674   0.0111805  -0.0048102
    8  -0.0036710  -0.0061041   0.0039699  -0.0022514   0.0008730  -0.0034133
    9   0.0022444   0.0047037   0.0006060   0.0007633  -0.0014341   0.0031797
   10  -0.1443139   0.0546482  -0.0524848  -0.0679387  -0.0288421   0.0183853
   11   0.0173597  -0.0784155   0.0142259  -0.0195014  -0.0011916   0.0079358
   12  -0.0422400   0.0238426  -0.0323694   0.0147410   0.0049159  -0.0089325
   13  -0.0142712   0.0327372   0.0498100   0.0004026  -0.0058135   0.0361344
   14   0.0311435   0.0654419  -0.0450290  -0.0352046  -0.0454296   0.0395164
   15   0.0458557  -0.0387524  -0.0755562   0.0077520   0.0005258  -0.0192759
   16  -0.0373318   0.0245600  -0.0135611   0.0013112   0.0025207  -0.0018506
   17   0.0148589  -0.0065244   0.0039290   0.0114947   0.0078684   0.0088896
   18   0.0056809   0.0160197  -0.0028821  -0.0018878  -0.0085284  -0.0000218
   19   0.3390422   0.0038847  -0.0281582  -0.1311054  -0.1379256   0.0606482
   20   0.0038847   0.3255514  -0.0504861  -0.1247909  -0.1353726   0.0268294
   21  -0.0281582  -0.0504861   0.0993525   0.0574629   0.0495697   0.0001916
   22  -0.1311054  -0.1247909   0.0574629   0.2029226   0.1451045  -0.0788818
   23  -0.1379256  -0.1353726   0.0495697   0.1451045   0.1562125  -0.0565172
   24   0.0606482   0.0268294   0.0001916  -0.0788818  -0.0565172   0.0079311
   25  -0.0167551   0.0573249  -0.0020065  -0.0005665  -0.0088235   0.0044483
   26   0.0410856  -0.0664969   0.0052709  -0.0052072  -0.0173476   0.0055633
   27  -0.0151512  -0.0026881   0.0168418   0.0117006   0.0086764  -0.0068603
   28  -0.0037471   0.0003140  -0.0073817  -0.0003868   0.0005372  -0.0016025
   29   0.0104341   0.0146276   0.0088823  -0.0022674  -0.0067356   0.0041837
   30  -0.0010080   0.0319773  -0.0031141  -0.0072561  -0.0100082   0.0086041
   31   0.0009828  -0.0111212   0.0002327   0.0105525   0.0094299  -0.0061570
   32   0.0078946  -0.0246576   0.0130756  -0.0039309  -0.0003337  -0.0023141
   33   0.0065906   0.0203352  -0.0053381  -0.0132558  -0.0051582   0.0070752
   34   0.0037551   0.0106546  -0.0073506  -0.0045310   0.0072502  -0.0014664
   35   0.0312118  -0.0233455   0.0014802  -0.0067824  -0.0133449   0.0042869
   36  -0.0054387  -0.0005512   0.0044277   0.0033123  -0.0016940   0.0006617
   37  -0.0063103  -0.0559863   0.0172189   0.0103534   0.0372959  -0.0487093
   38  -0.0478528  -0.0647942   0.0052216   0.0406297   0.0417815  -0.0316556
   39  -0.0170151  -0.0058257  -0.0064635  -0.0013389   0.0082621   0.0193303
   40   0.0231468   0.0149455  -0.0223910  -0.0191225  -0.0208692   0.0132670
   41  -0.0087052  -0.0051900   0.0026708   0.0055704   0.0058714   0.0011238
   42  -0.0033892  -0.0057618  -0.0041621   0.0030936   0.0038917  -0.0044384
   43  -0.0021939   0.0170199   0.0014659  -0.0079830  -0.0090642   0.0096150
   44   0.0196685  -0.0194366  -0.0034849  -0.0008769   0.0109551  -0.0075461
   45  -0.0150730  -0.0036800   0.0059228   0.0106854   0.0076631  -0.0048650
           25          26          27          28          29          30
    1  -0.0016975   0.0004290   0.0004393   0.0006724   0.0000589   0.0003211
    2   0.0045246   0.0019921  -0.0053650  -0.0000673  -0.0059932  -0.0074737
    3  -0.0023844   0.0004961   0.0024635   0.0000122   0.0029732   0.0041572
    4   0.0028386   0.0010458  -0.0046096   0.0002801  -0.0020980  -0.0037341
    5  -0.0041657  -0.0011585   0.0046884   0.0000479   0.0040895   0.0047944
    6   0.0021362  -0.0019779  -0.0026115   0.0001499  -0.0009049  -0.0029973
    7   0.0025821  -0.0000374  -0.0023886  -0.0004101   0.0001398  -0.0002790
    8  -0.0017549  -0.0002432   0.0020742  -0.0001069   0.0022190   0.0028351
    9   0.0008965  -0.0000422  -0.0008816  -0.0001460  -0.0008638  -0.0013564
   10  -0.0051643   0.0078123   0.0021281   0.0010032  -0.0021687  -0.0000243
   11   0.0064049  -0.0037173  -0.0001888   0.0003092  -0.0021504  -0.0042405
   12  -0.0051336   0.0001689   0.0041910   0.0006281  -0.0012981  -0.0041711
   13  -0.0002003  -0.0043289   0.0019877  -0.0019577  -0.0019662  -0.0024910
   14  -0.0114696   0.0060692   0.0099523   0.0070712  -0.0087240  -0.0089196
   15   0.0029133  -0.0014970  -0.0016320  -0.0016858   0.0034559   0.0037758
   16   0.0004755  -0.0017319  -0.0012012  -0.0001573   0.0010660   0.0006212
   17  -0.0016917  -0.0003041   0.0014447   0.0000416  -0.0029300  -0.0032366
   18   0.0015498  -0.0004239  -0.0011316  -0.0002489   0.0015054   0.0019441
   19  -0.0167551   0.0410856  -0.0151512  -0.0037471   0.0104341  -0.0010080
   20   0.0573249  -0.0664969  -0.0026881   0.0003140   0.0146276   0.0319773
   21  -0.0020065   0.0052709   0.0168418  -0.0073817   0.0088823  -0.0031141
   22  -0.0005665  -0.0052072   0.0117006  -0.0003868  -0.0022674  -0.0072561
   23  -0.0088235  -0.0173476   0.0086764   0.0005372  -0.0067356  -0.0100082
   24   0.0044483   0.0055633  -0.0068603  -0.0016025   0.0041837   0.0086041
   25   0.0253699  -0.0897044  -0.0018569  -0.0060845  -0.0066211  -0.0557305
   26  -0.0897044   0.1458352   0.0519039   0.0042101   0.0037550   0.0031908
   27  -0.0018569   0.0519039   0.0090296  -0.0152673  -0.0087658  -0.0012930
   28  -0.0060845   0.0042101  -0.0152673   0.0325024   0.0043761   0.0413823
   29  -0.0066211   0.0037550  -0.0087658   0.0043761  -0.0027828  -0.0260756
   30  -0.0557305   0.0031908  -0.0012930   0.0413823  -0.0260756  -0.0456087
   31   0.0053490  -0.0394885  -0.0116176  -0.0108409  -0.0097801  -0.0100149
   32   0.0142251  -0.0094266  -0.0167329  -0.0058113   0.0017168   0.0010458
   33   0.0012467   0.0380348   0.0283333  -0.0070789  -0.0019484   0.0182108
   34  -0.0063310   0.0802449   0.0366912  -0.0131622   0.0093913   0.0420576
   35   0.0272469  -0.0512185  -0.0303885  -0.0047891  -0.0046550   0.0070740
   36   0.0516990  -0.0990632  -0.0405655  -0.0103705   0.0221022   0.0254164
   37   0.0074791   0.0012966  -0.0090399  -0.0026965   0.0074824   0.0111204
   38   0.0059527  -0.0012660  -0.0072894  -0.0020680   0.0062786   0.0096713
   39  -0.0015151  -0.0007877   0.0009268   0.0012975  -0.0031315  -0.0031620
   40  -0.0027545   0.0012834   0.0037689  -0.0001994   0.0000677  -0.0021594
   41  -0.0001377   0.0005611  -0.0003464   0.0010134  -0.0013392  -0.0010466
   42   0.0008862   0.0000269  -0.0009555  -0.0005331   0.0007181   0.0008539
   43  -0.0045404   0.0030905   0.0044168   0.0051843  -0.0081146  -0.0128053
   44   0.0086894  -0.0070341  -0.0069749  -0.0050779   0.0026237   0.0004120
   45   0.0028510  -0.0008635  -0.0058550   0.0008448  -0.0008326  -0.0012596
           31          32          33          34          35          36
    1   0.0001057   0.0002123  -0.0022551  -0.0005543  -0.0022630  -0.0003177
    2  -0.0064036  -0.0016754   0.0097824   0.0028751   0.0052866   0.0031694
    3   0.0028651   0.0001274  -0.0050918  -0.0007792  -0.0034954  -0.0018620
    4  -0.0156190  -0.0001498   0.0084392   0.0036986   0.0049472   0.0011144
    5   0.0069935   0.0029363  -0.0062374  -0.0015571  -0.0032858  -0.0023248
    6  -0.0044907   0.0000711   0.0070093  -0.0000414   0.0040211   0.0025613
    7  -0.0028461  -0.0009829   0.0037724   0.0005416   0.0020361   0.0008034
    8   0.0027483   0.0002966  -0.0037277  -0.0012397  -0.0017985  -0.0012092
    9  -0.0011829  -0.0000630   0.0019113   0.0003274   0.0010961   0.0003964
   10   0.0033572  -0.0032433  -0.0052051  -0.0040748   0.0019197   0.0028118
   11  -0.0024296   0.0024676   0.0052879   0.0033371  -0.0015997  -0.0009502
   12   0.0057222   0.0035372  -0.0050239   0.0022791  -0.0028732  -0.0000784
   13   0.0028989   0.0087520   0.0003008   0.0032811   0.0017167  -0.0011341
   14   0.0176361   0.0011469  -0.0171323   0.0161144  -0.0182654  -0.0059128
   15  -0.0013041  -0.0032280   0.0008675  -0.0065828   0.0016284   0.0007826
   16   0.0000332   0.0000684  -0.0000051   0.0010571  -0.0016238  -0.0012210
   17   0.0014252   0.0015479   0.0001156   0.0012709   0.0009101   0.0002771
   18  -0.0019302  -0.0017592   0.0012317  -0.0015160   0.0001246   0.0004519
   19   0.0009828   0.0078946   0.0065906   0.0037551   0.0312118  -0.0054387
   20  -0.0111212  -0.0246576   0.0203352   0.0106546  -0.0233455  -0.0005512
   21   0.0002327   0.0130756  -0.0053381  -0.0073506   0.0014802   0.0044277
   22   0.0105525  -0.0039309  -0.0132558  -0.0045310  -0.0067824   0.0033123
   23   0.0094299  -0.0003337  -0.0051582   0.0072502  -0.0133449  -0.0016940
   24  -0.0061570  -0.0023141   0.0070752  -0.0014664   0.0042869   0.0006617
   25   0.0053490   0.0142251   0.0012467  -0.0063310   0.0272469   0.0516990
   26  -0.0394885  -0.0094266   0.0380348   0.0802449  -0.0512185  -0.0990632
   27  -0.0116176  -0.0167329   0.0283333   0.0366912  -0.0303885  -0.0405655
   28  -0.0108409  -0.0058113  -0.0070789  -0.0131622  -0.0047891  -0.0103705
   29  -0.0097801   0.0017168  -0.0019484   0.0093913  -0.0046550   0.0221022
   30  -0.0100149   0.0010458   0.0182108   0.0420576   0.0070740   0.0254164
   31   0.0148006   0.0215539   0.0276726  -0.0036095   0.0309585   0.0049573
   32   0.0215539   0.0281577  -0.0233761  -0.0288212   0.0004862   0.0252517
   33   0.0276726  -0.0233761  -0.0382461  -0.0225581  -0.0380238  -0.0168108
   34  -0.0036095  -0.0288212  -0.0225581   0.0198669  -0.0836612  -0.0504583
   35   0.0309585   0.0004862  -0.0380238  -0.0836612   0.0892272   0.0530446
   36   0.0049573   0.0252517  -0.0168108  -0.0504583   0.0530446   0.0242715
   37  -0.0119953  -0.0089624   0.0078520  -0.0082103   0.0067224   0.0035392
   38  -0.0090510  -0.0023210   0.0082928  -0.0060764   0.0083927   0.0005698
   39   0.0017511   0.0028728  -0.0010673   0.0042492  -0.0017785   0.0002908
   40   0.0045049  -0.0014179  -0.0045658  -0.0021954  -0.0029781  -0.0006137
   41  -0.0007793   0.0004212   0.0010482   0.0025315  -0.0001940  -0.0000998
   42  -0.0014529  -0.0002353   0.0012080  -0.0005243   0.0016461   0.0003428
   43   0.0023261   0.0006132  -0.0009505   0.0104681  -0.0046617   0.0013167
   44  -0.0116921  -0.0007630   0.0127071  -0.0123143   0.0134045   0.0073903
   45  -0.0050507   0.0017271   0.0057309   0.0056727   0.0021574  -0.0002864
           37          38          39          40          41          42
    1   0.0035846   0.0030043   0.0002890   0.0013333   0.0000347  -0.0010319
    2   0.0085742   0.0049933  -0.0016265  -0.0021793   0.0005849  -0.0045956
    3  -0.0121634  -0.0061008   0.0026667   0.0000768  -0.0035497  -0.0022838
    4  -0.0022920  -0.0020410   0.0000637   0.0004597  -0.0007161  -0.0002569
    5  -0.0039983  -0.0018369   0.0009830   0.0007333   0.0000654   0.0018822
    6   0.0060422   0.0042352  -0.0010186  -0.0013448   0.0022022  -0.0006254
    7  -0.0049818  -0.0035787   0.0002880   0.0004348   0.0000148  -0.0001287
    8  -0.0029991  -0.0010717   0.0008947   0.0009474  -0.0003363   0.0010954
    9   0.0040522   0.0023151  -0.0008045   0.0004050   0.0009598   0.0008265
   10   0.0063965   0.0125469   0.0025287  -0.0045599   0.0024952   0.0092891
   11  -0.0094907  -0.0123490  -0.0013527   0.0020157   0.0010127  -0.0057609
   12   0.0038191  -0.0018068   0.0034092   0.0008859  -0.0019986  -0.0036225
   13  -0.0120518   0.0332016  -0.0438423  -0.1133461   0.0056779   0.0441170
   14   0.0644096  -0.0267390  -0.0379379   0.0250191  -0.1190142   0.0022892
   15  -0.0149878  -0.0030472  -0.0224017   0.0351353   0.0049083  -0.0629292
   16   0.0000440   0.0009919   0.0007968  -0.0016086   0.0012184  -0.0011177
   17   0.0192534   0.0095412  -0.0021336  -0.0025737  -0.0011386   0.0025821
   18  -0.0080386  -0.0034368  -0.0001278  -0.0023973   0.0006023  -0.0006434
   19  -0.0063103  -0.0478528  -0.0170151   0.0231468  -0.0087052  -0.0033892
   20  -0.0559863  -0.0647942  -0.0058257   0.0149455  -0.0051900  -0.0057618
   21   0.0172189   0.0052216  -0.0064635  -0.0223910   0.0026708  -0.0041621
   22   0.0103534   0.0406297  -0.0013389  -0.0191225   0.0055704   0.0030936
   23   0.0372959   0.0417815   0.0082621  -0.0208692   0.0058714   0.0038917
   24  -0.0487093  -0.0316556   0.0193303   0.0132670   0.0011238  -0.0044384
   25   0.0074791   0.0059527  -0.0015151  -0.0027545  -0.0001377   0.0008862
   26   0.0012966  -0.0012660  -0.0007877   0.0012834   0.0005611   0.0000269
   27  -0.0090399  -0.0072894   0.0009268   0.0037689  -0.0003464  -0.0009555
   28  -0.0026965  -0.0020680   0.0012975  -0.0001994   0.0010134  -0.0005331
   29   0.0074824   0.0062786  -0.0031315   0.0000677  -0.0013392   0.0007181
   30   0.0111204   0.0096713  -0.0031620  -0.0021594  -0.0010466   0.0008539
   31  -0.0119953  -0.0090510   0.0017511   0.0045049  -0.0007793  -0.0014529
   32  -0.0089624  -0.0023210   0.0028728  -0.0014179   0.0004212  -0.0002353
   33   0.0078520   0.0082928  -0.0010673  -0.0045658   0.0010482   0.0012080
   34  -0.0082103  -0.0060764   0.0042492  -0.0021954   0.0025315  -0.0005243
   35   0.0067224   0.0083927  -0.0017785  -0.0029781  -0.0001940   0.0016461
   36   0.0035392   0.0005698   0.0002908  -0.0006137  -0.0000998   0.0003428
   37  -0.0068061  -0.0373045   0.0419170  -0.0073283   0.0014965  -0.0078071
   38  -0.0373045   0.0359957   0.0311685   0.0027861   0.0232941  -0.0037563
   39   0.0419170   0.0311685   0.0123373   0.0083301   0.0001461  -0.0014416
   40  -0.0073283   0.0027861   0.0083301   0.1188967  -0.0237498  -0.0281755
   41   0.0014965   0.0232941   0.0001461  -0.0237498   0.0927043   0.0071151
   42  -0.0078071  -0.0037563  -0.0014416  -0.0281755   0.0071151   0.0725827
   43   0.0348147   0.0088591   0.0022003   0.0023387   0.0140354  -0.0129687
   44  -0.0277898  -0.0198993   0.0102472   0.0059698   0.0026970  -0.0011369
   45   0.0051850  -0.0043815  -0.0024742  -0.0002214  -0.0137356   0.0052881
           43          44          45
    1  -0.0012055  -0.0001267  -0.0010792
    2   0.0012111   0.0035491   0.0012254
    3  -0.0019099  -0.0008653  -0.0016839
    4  -0.0005336  -0.0001806  -0.0006554
    5   0.0008964  -0.0032403   0.0003096
    6   0.0033554  -0.0015132   0.0014944
    7   0.0016629  -0.0004012   0.0001697
    8  -0.0000945  -0.0015300  -0.0002093
    9   0.0002937  -0.0002664   0.0005204
   10  -0.0015329  -0.0001950  -0.0001702
   11  -0.0002509   0.0012300   0.0028851
   12  -0.0074437   0.0112864  -0.0051705
   13  -0.1034842   0.0174290  -0.0011661
   14  -0.0275236  -0.0457208   0.0366748
   15   0.0133338   0.0122696  -0.0696734
   16  -0.0001150   0.0005987  -0.0013584
   17  -0.0023151   0.0013043   0.0007147
   18   0.0007147  -0.0028702  -0.0026759
   19  -0.0021939   0.0196685  -0.0150730
   20   0.0170199  -0.0194366  -0.0036800
   21   0.0014659  -0.0034849   0.0059228
   22  -0.0079830  -0.0008769   0.0106854
   23  -0.0090642   0.0109551   0.0076631
   24   0.0096150  -0.0075461  -0.0048650
   25  -0.0045404   0.0086894   0.0028510
   26   0.0030905  -0.0070341  -0.0008635
   27   0.0044168  -0.0069749  -0.0058550
   28   0.0051843  -0.0050779   0.0008448
   29  -0.0081146   0.0026237  -0.0008326
   30  -0.0128053   0.0004120  -0.0012596
   31   0.0023261  -0.0116921  -0.0050507
   32   0.0006132  -0.0007630   0.0017271
   33  -0.0009505   0.0127071   0.0057309
   34   0.0104681  -0.0123143   0.0056727
   35  -0.0046617   0.0134045   0.0021574
   36   0.0013167   0.0073903  -0.0002864
   37   0.0348147  -0.0277898   0.0051850
   38   0.0088591  -0.0198993  -0.0043815
   39   0.0022003   0.0102472  -0.0024742
   40   0.0023387   0.0059698  -0.0002214
   41   0.0140354   0.0026970  -0.0137356
   42  -0.0129687  -0.0011369   0.0052881
   43   0.0647938   0.0062990  -0.0006342
   44   0.0062990   0.0618604  -0.0296547
   45  -0.0006342  -0.0296547   0.0749874
 Gradient time:  CPU 259.79 s  wall 262.88 s
 **********************************************************************
 **                                                                  **
 **                       VIBRATIONAL ANALYSIS                       **
 **                       --------------------                       **
 **                                                                  **
 **        VIBRATIONAL FREQUENCIES (CM**-1) AND NORMAL MODES         **
 **     FORCE CONSTANTS (mDYN/ANGSTROM) AND REDUCED MASSES (AMU)     **
 **                  INFRARED INTENSITIES (KM/MOL)                   **
 **                                                                  **
 **********************************************************************
 

 Mode:                 1                      2                      3
 Frequency:     -1828.64               -1670.78               -1115.40
 Force Cnst:      2.1031                 1.7597                 0.8039
 Red. Mass:       1.0674                 1.0699                 1.0967
 IR Active:          YES                    YES                    YES
 IR Intens:      698.613               2057.388               1010.726
 Raman Active:       YES                    YES                    YES
               X      Y      Z        X      Y      Z        X      Y      Z
 C          0.001  0.005 -0.004    0.002 -0.001 -0.004   -0.002 -0.004  0.010
 O          0.001 -0.001  0.002   -0.007  0.000 -0.004   -0.007  0.001 -0.005
 O         -0.002 -0.001  0.002   -0.003  0.001  0.000    0.000  0.005  0.001
 C          0.004  0.000  0.003    0.008 -0.005  0.003    0.001 -0.001  0.009
 O          0.018  0.020 -0.004    0.018  0.025 -0.003   -0.020 -0.021 -0.008
 C          0.001  0.007 -0.002    0.001  0.005  0.000   -0.004 -0.010  0.003
 O         -0.001 -0.031  0.002   -0.002 -0.026  0.008   -0.004 -0.006 -0.009
 C          0.006  0.019 -0.027    0.015  0.019 -0.029    0.011 -0.009  0.037
 H          0.397  0.157 -0.089   -0.141 -0.164 -0.180    0.186 -0.054 -0.169
 H         -0.201  0.219  0.634    0.031 -0.024 -0.227   -0.179  0.118  0.420
 H          0.048 -0.121 -0.159   -0.346  0.102  0.589   -0.230  0.226  0.526
 C         -0.036 -0.008 -0.021    0.029  0.028  0.000    0.023  0.016 -0.062
 H         -0.366 -0.235  0.207   -0.420 -0.285  0.254    0.377  0.175 -0.370
 H          0.005  0.034 -0.020    0.020  0.034 -0.025    0.055 -0.044  0.028
 H          0.160 -0.113 -0.008    0.112 -0.211 -0.068   -0.053  0.023 -0.061
 TransDip   0.320 -0.466  0.630    0.790 -0.121  1.213    0.214 -0.493 -0.865

 Mode:                 4                      5                      6
 Frequency:      -918.55                -301.25                -262.76
 Force Cnst:      0.5299                 0.1977                 0.0944
 Red. Mass:       1.0660                 3.6980                 2.3208
 IR Active:          YES                    YES                    YES
 IR Intens:      270.316                 13.111                 26.734
 Raman Active:       YES                    YES                    YES
               X      Y      Z        X      Y      Z        X      Y      Z
 C          0.003  0.007 -0.006   -0.023  0.006  0.001   -0.026  0.040 -0.023
 O          0.010 -0.006 -0.005   -0.031 -0.006 -0.029    0.005  0.036 -0.020
 O          0.002 -0.004  0.003   -0.025  0.039  0.038   -0.033  0.027 -0.011
 C          0.005  0.002 -0.004   -0.029 -0.008 -0.027   -0.036  0.018 -0.008
 O          0.007  0.001  0.003    0.106 -0.148 -0.061   -0.001 -0.002  0.019
 C          0.001  0.006  0.005   -0.022  0.022  0.029    0.020  0.064  0.044
 O          0.015 -0.022 -0.024   -0.028 -0.036 -0.233   -0.114 -0.097  0.040
 C         -0.005 -0.013  0.002    0.005  0.113  0.083   -0.049 -0.160 -0.046
 H         -0.355 -0.407  0.665    0.338  0.279  0.345    0.160  0.059 -0.086
 H         -0.026  0.399  0.202    0.341  0.244 -0.083    0.330  0.613 -0.137
 H         -0.085  0.191 -0.056    0.107  0.085  0.248    0.517 -0.175  0.191
 C         -0.011  0.024 -0.046   -0.057  0.068  0.280    0.197  0.038 -0.008
 H         -0.033 -0.026  0.066    0.098 -0.209 -0.181    0.027 -0.035  0.006
 H         -0.021  0.011 -0.002    0.121 -0.140 -0.047    0.003  0.010  0.014
 H          0.052  0.019  0.059    0.133 -0.252 -0.116   -0.032  0.107  0.042
 TransDip  -0.268 -0.358 -0.278    0.080 -0.067 -0.051   -0.144 -0.051  0.064

 Mode:                 7                      8                      9
 Frequency:      -100.12                 -79.97                  83.93
 Force Cnst:      0.0369                 0.0231                 0.0280
 Red. Mass:       6.2536                 6.1323                 6.7560
 IR Active:          YES                    YES                    YES
 IR Intens:       19.727                 29.091                  0.657
 Raman Active:       YES                    YES                    YES
               X      Y      Z        X      Y      Z        X      Y      Z
 C         -0.036 -0.085 -0.067   -0.023  0.011  0.048   -0.017 -0.020  0.046
 O         -0.036 -0.153 -0.222   -0.038  0.076  0.188   -0.095 -0.157 -0.233
 O         -0.028 -0.045 -0.052   -0.010 -0.023 -0.057    0.001  0.215  0.306
 C         -0.069 -0.009  0.093   -0.033 -0.036 -0.065    0.045 -0.130 -0.007
 O          0.306  0.313  0.030    0.043  0.030 -0.016   -0.125  0.142 -0.050
 C         -0.131  0.007  0.151   -0.075 -0.109 -0.176    0.097 -0.216 -0.191
 O         -0.078 -0.002 -0.013   -0.088 -0.002 -0.115    0.080 -0.062  0.058
 C          0.045 -0.070  0.114    0.213 -0.008  0.465   -0.021  0.079  0.106
 H         -0.196 -0.010 -0.148   -0.109 -0.004 -0.319    0.390  0.076  0.219
 H         -0.169  0.017  0.009    0.026  0.344 -0.288    0.434  0.148 -0.170
 H          0.003 -0.065  0.041    0.184 -0.166 -0.202    0.137 -0.026  0.034
 C         -0.072 -0.060  0.058    0.035  0.036 -0.219    0.039  0.057 -0.060
 H          0.289  0.196 -0.045   -0.082 -0.250  0.249   -0.155  0.097 -0.006
 H          0.272  0.348  0.012   -0.019  0.065 -0.045   -0.146  0.149 -0.080
 H          0.338  0.301  0.067    0.057 -0.001 -0.030   -0.139  0.102 -0.015
 TransDip   0.085  0.110 -0.030   -0.140  0.022  0.099   -0.002  0.012 -0.023

 Mode:                10                     11                     12
 Frequency:       151.16                 229.34                 281.10
 Force Cnst:      0.0660                 0.0938                 0.2080
 Red. Mass:       4.9046                 3.0271                 4.4679
 IR Active:          YES                    YES                    YES
 IR Intens:       32.973                 20.286                106.828
 Raman Active:       YES                    YES                    YES
               X      Y      Z        X      Y      Z        X      Y      Z
 C          0.096  0.035 -0.005   -0.025  0.021  0.021   -0.021  0.001 -0.019
 O          0.277 -0.006 -0.127   -0.020 -0.012 -0.055    0.051  0.026  0.027
 O          0.011 -0.044  0.172   -0.033  0.053  0.094   -0.078 -0.058  0.094
 C         -0.007  0.130 -0.055   -0.038  0.042 -0.018    0.014 -0.029 -0.083
 O         -0.129 -0.019 -0.026    0.021 -0.059  0.026   -0.114  0.120 -0.173
 C         -0.056  0.104 -0.084   -0.126 -0.025 -0.094    0.115  0.178  0.237
 O         -0.072  0.054 -0.023   -0.039  0.059 -0.048    0.007 -0.148 -0.110
 C          0.104 -0.101  0.067    0.134 -0.150 -0.051   -0.017  0.031  0.138
 H         -0.376 -0.014 -0.321   -0.207 -0.061 -0.017   -0.006 -0.168  0.026
 H         -0.218  0.418 -0.027   -0.438 -0.469  0.333   -0.181 -0.527  0.092
 H          0.233 -0.172  0.328   -0.261  0.125 -0.346   -0.283 -0.023 -0.324
 C         -0.195 -0.163  0.084    0.224  0.103  0.102    0.160 -0.060  0.007
 H         -0.094 -0.020  0.040    0.021 -0.089  0.203   -0.202  0.012 -0.223
 H         -0.142 -0.024 -0.016    0.000 -0.053  0.022   -0.105  0.134 -0.193
 H         -0.092 -0.014 -0.030    0.004 -0.011  0.020   -0.092  0.075 -0.146
 TransDip  -0.064 -0.106 -0.136   -0.131  0.038  0.048   -0.001  0.279  0.178

 Mode:                13                     14                     15
 Frequency:       293.30                 335.50                 409.38
 Force Cnst:      0.3565                 0.2252                 0.4186
 Red. Mass:       7.0345                 3.3960                 4.2395
 IR Active:          YES                    YES                    YES
 IR Intens:       22.030                  3.724                 88.562
 Raman Active:       YES                    YES                    YES
               X      Y      Z        X      Y      Z        X      Y      Z
 C         -0.133  0.054 -0.003   -0.039 -0.038 -0.001   -0.125 -0.044  0.018
 O          0.069  0.040 -0.061    0.008 -0.024  0.004   -0.184 -0.059  0.009
 O         -0.242 -0.152  0.062   -0.075 -0.112  0.008   -0.144 -0.073  0.030
 C         -0.096  0.078  0.036   -0.020  0.008 -0.012    0.025  0.009  0.020
 O          0.180 -0.055  0.071   -0.033  0.043  0.019   -0.049 -0.018 -0.024
 C          0.412  0.023 -0.299    0.162  0.068  0.010    0.072  0.050  0.084
 O         -0.043 -0.008  0.070   -0.020  0.032 -0.001    0.177  0.162 -0.048
 C         -0.177  0.127  0.070    0.178 -0.201 -0.030    0.225  0.055 -0.089
 H         -0.323 -0.137 -0.166    0.461  0.279  0.337   -0.232 -0.024 -0.292
 H         -0.323 -0.086  0.102    0.375 -0.277 -0.075   -0.073  0.657 -0.038
 H         -0.101 -0.129 -0.120   -0.124  0.283  0.077    0.342 -0.099  0.117
 C          0.056 -0.003  0.022   -0.172  0.213 -0.050    0.075 -0.138  0.020
 H          0.109  0.018 -0.160    0.059 -0.027  0.181   -0.012  0.095  0.106
 H          0.202 -0.090  0.132   -0.028  0.072  0.003   -0.075 -0.039 -0.021
 H          0.275 -0.090  0.028   -0.141  0.025 -0.001   -0.020  0.061  0.031
 TransDip   0.109  0.087  0.055   -0.034 -0.037 -0.036   -0.090 -0.190 -0.216

 Mode:                16                     17                     18
 Frequency:       442.40                 537.94                 568.37
 Force Cnst:      0.5638                 0.6703                 0.7228
 Red. Mass:       4.8894                 3.9315                 3.7974
 IR Active:          YES                    YES                    YES
 IR Intens:        2.780                 15.317                 66.079
 Raman Active:       YES                    YES                    YES
               X      Y      Z        X      Y      Z        X      Y      Z
 C          0.090 -0.133  0.062   -0.007 -0.008 -0.061   -0.007  0.058  0.112
 O         -0.113 -0.180  0.081   -0.024  0.028  0.018    0.007 -0.006 -0.033
 O          0.237  0.077  0.008   -0.039  0.011  0.052    0.017 -0.015 -0.069
 C         -0.080 -0.041 -0.037    0.084 -0.113 -0.182   -0.009  0.135  0.352
 O         -0.033  0.008  0.005    0.074 -0.064 -0.177   -0.061  0.001 -0.124
 C          0.265  0.101  0.011   -0.039 -0.014  0.075    0.005 -0.071 -0.011
 O         -0.161  0.075 -0.102   -0.004  0.013  0.246    0.075 -0.099 -0.049
 C         -0.067 -0.027 -0.026    0.057 -0.010  0.012    0.035 -0.066 -0.011
 H         -0.469  0.039 -0.366   -0.376 -0.042 -0.123   -0.184 -0.080 -0.129
 H         -0.506  0.244  0.034   -0.261  0.227 -0.006   -0.170  0.119 -0.148
 H          0.029 -0.115 -0.080    0.034 -0.397 -0.106   -0.046 -0.562 -0.156
 C         -0.028  0.106  0.034   -0.091  0.201  0.052   -0.036  0.156  0.010
 H         -0.025 -0.025 -0.003    0.062 -0.081 -0.395   -0.159  0.153 -0.380
 H         -0.054  0.021 -0.015    0.195 -0.074 -0.112   -0.065 -0.065 -0.047
 H         -0.006  0.071  0.042    0.177 -0.115 -0.243    0.149 -0.206 -0.173
 TransDip  -0.038 -0.037  0.005    0.056 -0.006  0.112    0.252  0.030 -0.058

 Mode:                19                     20                     21
 Frequency:       638.39                 749.25                 817.29
 Force Cnst:      1.1837                 1.4196                 1.1443
 Red. Mass:       4.9299                 4.2922                 2.9076
 IR Active:          YES                    YES                    YES
 IR Intens:        9.844                231.628                607.071
 Raman Active:       YES                    YES                    YES
               X      Y      Z        X      Y      Z        X      Y      Z
 C          0.045 -0.050  0.067    0.083 -0.014 -0.079   -0.118 -0.102 -0.010
 O         -0.149 -0.133  0.026   -0.150  0.016  0.009    0.109 -0.062  0.067
 O          0.098 -0.069  0.025    0.017 -0.102  0.078   -0.025  0.138 -0.045
 C         -0.056  0.257  0.002    0.133  0.101 -0.143   -0.172 -0.006 -0.041
 O          0.051 -0.037 -0.158   -0.004  0.032  0.191    0.039 -0.017 -0.058
 C         -0.093  0.251 -0.164   -0.096  0.133 -0.095   -0.020  0.070 -0.021
 O         -0.012  0.007  0.168    0.143 -0.160 -0.085    0.159  0.012 -0.001
 C         -0.004 -0.007  0.068   -0.058 -0.020  0.015   -0.068 -0.060  0.051
 H          0.321 -0.036  0.322   -0.065 -0.106 -0.116   -0.035 -0.105  0.063
 H          0.441 -0.091 -0.024   -0.145 -0.114  0.001   -0.011 -0.288  0.202
 H         -0.137  0.231 -0.086    0.088 -0.650  0.206    0.355 -0.289  0.395
 C          0.059 -0.129 -0.032   -0.054  0.129  0.011   -0.012  0.042 -0.017
 H         -0.098 -0.015 -0.151    0.010  0.260 -0.120   -0.057  0.363  0.400
 H          0.118 -0.083 -0.055   -0.095 -0.033  0.128   -0.127 -0.155 -0.083
 H          0.134 -0.173 -0.298    0.024  0.114  0.302    0.048  0.019  0.047
 TransDip  -0.016  0.046  0.088    0.404  0.132 -0.238   -0.069 -0.322 -0.717

 Mode:                22                     23                     24
 Frequency:       882.26                 908.78                 940.61
 Force Cnst:      0.7638                 1.7963                 1.1266
 Red. Mass:       1.6654                 3.6916                 2.1612
 IR Active:          YES                    YES                    YES
 IR Intens:       36.379                479.117                270.300
 Raman Active:       YES                    YES                    YES
               X      Y      Z        X      Y      Z        X      Y      Z
 C          0.037  0.082  0.090   -0.105  0.063  0.299   -0.003  0.119  0.208
 O         -0.058  0.029 -0.050    0.080 -0.134 -0.022   -0.015  0.011 -0.071
 O          0.021 -0.079  0.005   -0.034  0.046 -0.124    0.018 -0.043 -0.043
 C          0.055  0.007  0.011    0.006 -0.009 -0.135    0.020 -0.069 -0.113
 O          0.026 -0.016 -0.093   -0.035  0.025  0.077    0.014 -0.006  0.003
 C          0.007 -0.028  0.016   -0.032  0.076 -0.031    0.005 -0.003  0.031
 O         -0.004  0.020 -0.008   -0.009 -0.094  0.021    0.022  0.040 -0.013
 C         -0.078 -0.003  0.019    0.110  0.119 -0.069   -0.058 -0.085  0.038
 H         -0.121 -0.032  0.021   -0.067 -0.113  0.061    0.080  0.080 -0.062
 H         -0.077 -0.229  0.197    0.026 -0.094  0.030   -0.008  0.085 -0.076
 H          0.385 -0.031  0.262    0.054 -0.285 -0.005   -0.121  0.180 -0.041
 C         -0.009  0.021 -0.011   -0.004  0.013  0.003   -0.003 -0.011  0.007
 H          0.284 -0.178  0.548    0.265 -0.510 -0.285   -0.387  0.544 -0.009
 H         -0.001  0.147 -0.217    0.210  0.356  0.122   -0.164 -0.370  0.082
 H         -0.353  0.097  0.030   -0.252 -0.007  0.040    0.451  0.028  0.030
 TransDip  -0.136  0.014 -0.136   -0.279  0.348  0.541    0.315 -0.274 -0.322

 Mode:                25                     26                     27
 Frequency:       959.25                1056.24                1118.06
 Force Cnst:      0.6469                 2.0731                 0.9056
 Red. Mass:       1.1932                 3.1539                 1.2296
 IR Active:          YES                    YES                    YES
 IR Intens:      583.379                 77.806                272.920
 Raman Active:       YES                    YES                    YES
               X      Y      Z        X      Y      Z        X      Y      Z
 C          0.015  0.012 -0.018   -0.044 -0.052 -0.005    0.003  0.001  0.013
 O         -0.022  0.005 -0.001    0.043 -0.132  0.064    0.002  0.027 -0.023
 O          0.000 -0.001  0.001   -0.123  0.091 -0.047    0.027 -0.014  0.011
 C          0.006 -0.003  0.022    0.309  0.103  0.038   -0.084 -0.013  0.014
 O         -0.013 -0.007  0.003    0.019 -0.036 -0.027    0.025 -0.060 -0.023
 C          0.011 -0.018  0.003   -0.015  0.015 -0.020   -0.004  0.014  0.001
 O         -0.069  0.012 -0.003   -0.032 -0.035 -0.009    0.019 -0.015  0.020
 C          0.069  0.042 -0.014   -0.072 -0.033  0.032    0.029  0.023 -0.003
 H         -0.174 -0.088  0.144   -0.107  0.187 -0.235    0.051  0.027 -0.083
 H          0.141 -0.427  0.223   -0.112  0.034 -0.058    0.065  0.077 -0.035
 H          0.510 -0.002  0.246    0.103  0.596 -0.088   -0.265 -0.034 -0.011
 C         -0.002 -0.006 -0.029   -0.027  0.026  0.007   -0.007  0.007 -0.004
 H         -0.319  0.005 -0.336   -0.141  0.016  0.047   -0.137 -0.089 -0.114
 H         -0.014 -0.099  0.053   -0.125 -0.060 -0.306   -0.056  0.112 -0.404
 H          0.301  0.150  0.114    0.068  0.308  0.312   -0.047  0.511  0.639
 TransDip  -0.276  0.359  0.627    0.052 -0.039  0.275   -0.250  0.370  0.283

 Mode:                28                     29                     30
 Frequency:      1152.00                1252.51                1296.85
 Force Cnst:      1.1702                 1.1367                 1.4415
 Red. Mass:       1.4966                 1.2297                 1.4548
 IR Active:          YES                    YES                    YES
 IR Intens:      119.559                339.787                153.452
 Raman Active:       YES                    YES                    YES
               X      Y      Z        X      Y      Z        X      Y      Z
 C         -0.013  0.015 -0.008    0.011 -0.003 -0.010    0.020 -0.005 -0.004
 O         -0.012  0.023 -0.012    0.001 -0.008  0.005   -0.001 -0.002 -0.001
 O          0.040 -0.021  0.012   -0.005  0.006 -0.004   -0.018  0.004 -0.007
 C         -0.100 -0.012 -0.001    0.006  0.018  0.003    0.020 -0.007 -0.001
 O         -0.017  0.003  0.000   -0.028 -0.010 -0.061   -0.034 -0.019 -0.045
 C         -0.013  0.014 -0.009    0.007 -0.009  0.000   -0.003 -0.001  0.002
 O          0.084 -0.108  0.022   -0.037 -0.057  0.006    0.056  0.087 -0.025
 C          0.013  0.011 -0.001    0.045  0.061 -0.021   -0.092 -0.091  0.047
 H         -0.232  0.171 -0.281   -0.013 -0.023 -0.065    0.030 -0.004 -0.008
 H         -0.133  0.030 -0.044    0.111  0.023  0.036    0.068 -0.012  0.009
 H          0.365  0.747 -0.145   -0.188 -0.096 -0.005   -0.023 -0.045  0.019
 C         -0.028  0.036  0.016   -0.011  0.006  0.015    0.010 -0.001  0.001
 H          0.026 -0.129 -0.017    0.179  0.125  0.422   -0.116 -0.295 -0.188
 H          0.069  0.070  0.184    0.151 -0.276  0.590    0.370  0.494  0.566
 H          0.073 -0.027 -0.022    0.171  0.464  0.046    0.146  0.007  0.312
 TransDip  -0.327 -0.069  0.105   -0.274  0.356  0.383    0.311 -0.235  0.075

 Mode:                31                     32                     33
 Frequency:      1346.97                1357.52                1488.21
 Force Cnst:      3.4643                 1.4808                 1.4709
 Red. Mass:       3.2408                 1.3638                 1.1272
 IR Active:          YES                    YES                    YES
 IR Intens:      444.271                108.436                 43.564
 Raman Active:       YES                    YES                    YES
               X      Y      Z        X      Y      Z        X      Y      Z
 C          0.351  0.033  0.026    0.133  0.023  0.009   -0.009  0.041 -0.021
 O         -0.026 -0.057  0.024   -0.009 -0.027  0.012    0.003 -0.028  0.012
 O         -0.188  0.054 -0.045   -0.072  0.020 -0.016    0.007 -0.005  0.004
 C         -0.107 -0.039  0.011   -0.038 -0.021 -0.001    0.001  0.005 -0.005
 O          0.005 -0.006 -0.014    0.003  0.007  0.016    0.031 -0.027 -0.012
 C         -0.001  0.019 -0.006    0.001  0.002  0.002    0.001 -0.013  0.006
 O          0.009 -0.022  0.021    0.022  0.007 -0.012   -0.032 -0.026 -0.002
 C          0.032  0.021 -0.011   -0.019 -0.016  0.004    0.038  0.027 -0.006
 H          0.272  0.117  0.317   -0.316 -0.119 -0.370   -0.051 -0.001 -0.042
 H         -0.657  0.014 -0.370    0.687  0.007  0.397    0.039  0.023  0.063
 H          0.153  0.042  0.132   -0.138  0.016 -0.169    0.009  0.043 -0.020
 C          0.013 -0.012 -0.019   -0.016  0.017  0.020   -0.002  0.005 -0.002
 H         -0.014  0.070  0.028    0.044 -0.017 -0.017   -0.343  0.563  0.041
 H          0.013 -0.009  0.018   -0.073 -0.019 -0.117    0.386  0.204  0.105
 H         -0.025 -0.003  0.086   -0.056 -0.045 -0.126   -0.511 -0.231  0.162
 TransDip   0.643  0.114  0.171    0.117 -0.109 -0.292   -0.056  0.194  0.061

 Mode:                34                     35                     36
 Frequency:      1581.34                1675.26                1772.18
 Force Cnst:     12.4713                 1.8386                16.3878
 Red. Mass:       8.4647                 1.1119                 8.8564
 IR Active:          YES                    YES                    YES
 IR Intens:      551.068                918.153                 33.802
 Raman Active:       YES                    YES                    YES
               X      Y      Z        X      Y      Z        X      Y      Z
 C         -0.089  0.593 -0.281   -0.002 -0.008  0.010    0.048 -0.132  0.064
 O          0.023 -0.341  0.159    0.002  0.007 -0.007   -0.020  0.018 -0.012
 O          0.067 -0.058  0.034    0.000  0.000 -0.001   -0.017  0.023 -0.011
 C         -0.091  0.042 -0.041    0.005 -0.029  0.024   -0.136  0.553 -0.303
 O          0.002  0.016  0.008    0.049 -0.006  0.018    0.021 -0.021  0.033
 C          0.011 -0.104  0.056   -0.008  0.021 -0.013    0.117 -0.440  0.243
 O          0.055  0.035 -0.002    0.031  0.018 -0.010    0.032 -0.023  0.008
 C         -0.024 -0.033  0.014   -0.023 -0.026  0.014   -0.019 -0.013  0.010
 H          0.141  0.045  0.017   -0.008  0.036  0.035    0.019  0.032  0.023
 H         -0.086 -0.031 -0.108   -0.069  0.028  0.004   -0.026  0.016 -0.014
 H         -0.125 -0.104  0.117   -0.001  0.007  0.026   -0.016  0.014  0.024
 C          0.001 -0.001  0.000   -0.005  0.002 -0.001    0.000  0.000 -0.005
 H          0.131 -0.336 -0.110   -0.351 -0.194 -0.197   -0.256 -0.094 -0.116
 H         -0.233 -0.178 -0.037    0.011 -0.214  0.178   -0.030  0.197 -0.039
 H          0.113  0.229 -0.030   -0.489  0.511 -0.453   -0.055  0.256 -0.293
 TransDip  -0.233  0.648 -0.303   -0.500  0.339  0.760   -0.166 -0.084 -0.002

 Mode:                37                     38                     39
 Frequency:      1821.44                2031.95                2488.56
 Force Cnst:      2.2044                 2.6792                 3.8532
 Red. Mass:       1.1278                 1.1013                 1.0560
 IR Active:          YES                    YES                    YES
 IR Intens:       57.839                320.713                245.923
 Raman Active:       YES                    YES                    YES
               X      Y      Z        X      Y      Z        X      Y      Z
 C         -0.001  0.013 -0.008    0.002  0.000  0.002    0.000  0.000  0.001
 O          0.001 -0.006  0.003    0.000  0.000 -0.001    0.001  0.000 -0.001
 O          0.001 -0.003  0.001    0.000  0.001  0.000    0.000  0.000  0.000
 C          0.004 -0.021  0.013   -0.007  0.007 -0.002    0.002 -0.002  0.000
 O         -0.032 -0.066  0.039   -0.055  0.036  0.024   -0.003  0.002  0.000
 C         -0.004  0.015 -0.009    0.000 -0.006  0.002   -0.001  0.001  0.000
 O         -0.001 -0.010 -0.004    0.017  0.012 -0.011    0.011 -0.019  0.002
 C          0.003  0.008  0.000   -0.019 -0.019  0.009   -0.002 -0.004  0.002
 H          0.014  0.000  0.016    0.000 -0.016  0.012   -0.419  0.824  0.241
 H         -0.016 -0.006 -0.024   -0.007 -0.003 -0.019    0.044  0.006  0.108
 H         -0.016 -0.018  0.018    0.035 -0.004 -0.021   -0.174 -0.127  0.136
 C         -0.003  0.003  0.001   -0.001 -0.001  0.000    0.031 -0.028 -0.044
 H         -0.028  0.237  0.149    0.017 -0.113  0.035    0.016 -0.005 -0.002
 H          0.203  0.570 -0.256    0.804 -0.441 -0.361    0.017  0.000 -0.006
 H          0.343  0.333 -0.501    0.067  0.029  0.026    0.026 -0.047 -0.003
 TransDip  -0.011  0.206 -0.130   -0.335 -0.168  0.434   -0.240  0.410  0.161

 STANDARD THERMODYNAMIC QUANTITIES AT   298.15 K  AND     1.00 ATM

   This Molecule has  8 Imaginary Frequencies
   Zero point vibrational energy:       43.841 kcal/mol

   Atom    1 Element C  Has Mass   12.00000
   Atom    2 Element O  Has Mass   15.99491
   Atom    3 Element O  Has Mass   15.99491
   Atom    4 Element C  Has Mass   12.00000
   Atom    5 Element O  Has Mass   15.99491
   Atom    6 Element C  Has Mass   12.00000
   Atom    7 Element O  Has Mass   15.99491
   Atom    8 Element C  Has Mass   12.00000
   Atom    9 Element H  Has Mass    1.00783
   Atom   10 Element H  Has Mass    1.00783
   Atom   11 Element H  Has Mass    1.00783
   Atom   12 Element C  Has Mass   12.00000
   Atom   13 Element H  Has Mass    1.00783
   Atom   14 Element H  Has Mass    1.00783
   Atom   15 Element H  Has Mass    1.00783
   Molecular Mass:   130.026620 amu
   Principal axes and moments of inertia in amu*Bohr^2:
                             1           2           3
    Eigenvalues --      776.77344  1444.95615  1669.10672
          X               0.99936    -0.02870     0.02153
          Y               0.02794     0.99900     0.03480
          Z              -0.02251    -0.03418     0.99916
   Rotational Symmetry Number is   1
   The Molecule is an Asymmetric Top
   Translational Enthalpy:        0.889 kcal/mol
   Rotational Enthalpy:           0.889 kcal/mol
   Vibrational Enthalpy:         46.827 kcal/mol
   gas constant (RT):             0.592 kcal/mol
   Translational Entropy:        40.501  cal/mol.K
   Rotational Entropy:           29.017  cal/mol.K
   Vibrational Entropy:          17.049  cal/mol.K

   Total Enthalpy:               49.197 kcal/mol
   Total Entropy:                86.566  cal/mol.K
Archival summary:
1\1\fock\FREQ\HF\6-31+G*\456(2-,1)\emavera\ThuApr2712:22:482017ThuApr2712:22:482017\0\\#,FREQ,HF,6-31+G*,\\-2,1\O\C,1,1.28569\C,1,1.41847,2,122.46\C,3,1.32213,1,114.262,2,8.89011,0\H,1,1.47574,2,112.534,3,177.962,0\H,5,1.12396,1,108.077,2,173.402,0\C,5,1.13588,1,119.436,2,-60.356,0\H,5,1.21754,1,112.3,2,53.1973,0\C,3,1.51795,1,134.263,2,173.082,0\O,9,1.25689,3,118.577,1,14.0548,0\O,9,1.28925,3,120.674,1,-169.259,0\O,3,2.00982,1,72.7564,2,-94.509,0\H,12,1.1198,3,93.7797,1,174.225,0\H,12,1.13239,3,110.445,1,57.2803,0\H,12,1.14335,3,108.708,1,-70.5316,0\\HF=-491.171688\\@

 Total job time:  332.92s(wall), 321.82s(cpu) 
 Thu Apr 27 12:22:48 2017

        *************************************************************
        *                                                           *
        *  Thank you very much for using Q-Chem.  Have a nice day.  *
        *                                                           *
        *************************************************************


0 sent ACK to 0 
now end server 0 ... 
cleanup process ... done

Running Job 2 of 3 ts_kari2.qcin
qchem ts_kari2.qcin_27171.1 /tmp/ts_kari2.qcin/ 1
/programs/x86_64/lib/qchem-4.3.2/bin/mpi/mpirun_qchem -machinefile /programs/x86_64/lib/qchem-4.3.2/bin/mpi/machines -np 1 /programs/x86_64/lib/qchem-4.3.2/exe/qcprog.exe ts_kari2.qcin_27171.1 /tmp/ts_kari2.qcin/

Process 0 of 1 is on fock - thread support 0
initial socket setup ...start
initial socket setup ...done 
now start server 0 ... 

cmd = ssh thor /programs/x86_64/lib/qchem-4.3.2/bin/get_hostid 1022421697 > /tmp/ts_kari2.qcin/lic.dat
                  Welcome to Q-Chem
     A Quantum Leap Into The Future Of Chemistry


 Q-Chem 4.3, Q-Chem, Inc., Pleasanton, CA (2015)

 Y. Shao,  Z. Gan,  E. Epifanovsky,  A. T. B. Gilbert,  M. Wormit,  
 J. Kussmann,  A. W. Lange,  A. Behn,  J. Deng,  X. Feng,  D. Ghosh,  
 M. Goldey,  P. R. Horn,  L. D. Jacobson,  I. Kaliman,  R. Z. Khaliullin,  
 T. Kus,  A. Landau,  J. Liu,  E. I. Proynov,  Y. M. Rhee,  R. M. Richard,  
 M. A. Rohrdanz,  R. P. Steele,  E. J. Sundstrom,  H. L. Woodcock III,  
 P. M. Zimmerman,  D. Zuev,  B. Albrecht,  E. Alguire,  B. Austin,  
 S. A. Baeppler,  G. J. O. Beran,  Y. A. Bernard,  E. Berquist,  
 K. Brandhorst,  K. B. Bravaya,  S. T. Brown,  D. Casanova,  C.-M. Chang,  
 Y. Chen,  S. H. Chien,  K. D. Closser,  D. L. Crittenden,  M. Diedenhofen,  
 R. A. DiStasio Jr.,  H. Do,  A. D. Dutoi,  R. G. Edgar,  P.-T. Fang,  
 S. Fatehi,  Q. Feng,  L. Fusti-Molnar,  A. Ghysels,  
 A. Golubeva-Zadorozhnaya,  J. Gomes,  A. Gunina,  M. W. D. Hanson-Heine,  
 P. H. P. Harbach,  A. W. Hauser,  E. G. Hohenstein,  Z. C. Holden,  K. Hui,  
 T.-C. Jagau,  H. Ji,  B. Kaduk,  K. Khistyaev,  Jaehoon Kim,  Jihan Kim,  
 R. A. King,  P. Klunzinger,  D. Kosenkov,  T. Kowalczyk,  C. M. Krauter,  
 K. U. Lao,  A. Laurent,  K. V. Lawler,  S. Lehtola,  S. V. Levchenko,  
 C. Y. Lin,  Y.-S. Lin,  F. Liu,  E. Livshits,  R. C. Lochan,  A. Luenser,  
 P. Manohar,  S. F. Manzer,  S.-P. Mao,  N. Mardirossian,  A. V. Marenich,  
 L. A. Martinez-Martinez,  S. A. Maurer,  N. J. Mayhall,  K. Nanda,  
 C. M. Oana,  R. Olivares-Amaya,  D. P. O'Neill,  J. A. Parkhill,  
 T. M. Perrine,  R. Peverati,  P. A. Pieniazek,  F. Plasser,  A. Prociuk,  
 D. R. Rehn,  E. Rosta,  N. J. Russ,  N. Sergueev,  S. M. Sharada,  
 S. Sharma,  D. W. Small,  A. Sodt,  T. Stauch,  T. Stein,  D. Stuck,  
 Y.-C. Su,  A. J. W. Thom,  T. Tsuchimochi,  L. Vogt,  O. Vydrov,  T. Wang,  
 M. A. Watson,  J. Wenzel,  A. White,  C. F. Williams,  V. Vanovschi,  
 S. Yeganeh,  S. R. Yost,  Z.-Q. You,  I. Y. Zhang,  X. Zhang,  Y. Zhao,  
 B. R. Brooks,  G. K. L. Chan,  D. M. Chipman,  C. J. Cramer,  
 W. A. Goddard III,  M. S. Gordon,  W. J. Hehre,  A. Klamt,  
 H. F. Schaefer III,  M. W. Schmidt,  C. D. Sherrill,  D. G. Truhlar,  
 A. Warshel,  X. Xu,  A. Aspuru-Guzik,  R. Baer,  A. T. Bell,  N. A. Besley,  
 J.-D. Chai,  A. Dreuw,  B. D. Dunietz,  T. R. Furlani,  S. R. Gwaltney,  
 C.-P. Hsu,  Y. Jung,  J. Kong,  D. S. Lambrecht,  W. Liang,  C. Ochsenfeld,  
 V. A. Rassolov,  L. V. Slipchenko,  J. E. Subotnik,  T. Van Voorhis,  
 J. M. Herbert,  A. I. Krylov,  P. M. W. Gill,  M. Head-Gordon

 Contributors to earlier versions of Q-Chem not listed above: 
 R. D. Adamson,  J. Baker,  E. F. C. Byrd,  A. K. Chakraborty,  C.-L. Cheng,  
 H. Dachsel,  R. J. Doerksen,  G. Hawkins,  A. Heyden,  S. Hirata,  
 G. Kedziora,  F. J. Keil,  C. Kelley,  P. P. Korambath,  W. Kurlancheek,  
 A. M. Lee,  M. S. Lee,  D. Liotard,  I. Lotan,  P. E. Maslen,  N. Nair,  
 D. Neuhauser,  R. Olson,  B. Peters,  J. Ritchie,  N. E. Schultz,  
 N. Shenvi,  A. C. Simmonett,  K. S. Thanthiriwatte,  Q. Wu,  W. Zhang

 Please cite Q-Chem as follows:
 Y. Shao et al., Mol. Phys. 113, 184-215 (2015)
 DOI: 10.1080/00268976.2014.952696

 Q-Chem 4.3.0 for Intel X86 Linux

 Parts of Q-Chem use Armadillo 5.200.1 (Boston Tea Smuggler).
 http://arma.sourceforge.net/

 Q-Chem begins on Thu Apr 27 12:22:51 2017  

Host: 
0

     Scratch files written to /tmp/ts_kari2.qcin//
 Oct1215 13750_ 19228  19214 4150   
 Parallel job on  1  processors
Processing $rem in /programs/x86_64/lib/qchem-4.3.2/config/preferences.
 MEM_TOTAL  2000 

Checking the input file for inconsistencies... 	...done.

--------------------------------------------------------------
User input:
--------------------------------------------------------------

$molecule
READ
$end

$rem
jobtype          TS
exchange         HF
basis            6-31+G(d)
geom_opt_hessian READ
geom_opt_maxcyc  100
$end

--------------------------------------------------------------
 ----------------------------------------------------------------
             Standard Nuclear Orientation (Angstroms)
    I     Atom           X                Y                Z
 ----------------------------------------------------------------
    1      C       1.4811690632     0.4049027665     0.1362873593
    2      O       1.3722717827     1.5292350721    -0.4148897891
    3      O       2.6401755856    -0.0627561798     0.4527632524
    4      C       0.2270191616    -0.4226712704     0.3517177141
    5      O      -0.3909120679    -0.8407457258    -1.5145000506
    6      C       0.5322755298    -1.5536270632     0.9647352867
    7      O      -1.1631486252    -0.1460477743     0.2972111448
    8      C      -2.0520178188    -1.0048325432     0.6513386323
    9      H      -1.7537091431     1.1423738790    -0.1139152567
   10      H      -2.6088693507     1.0064540903    -0.9698567444
   11      H      -0.9298036457     1.7896872914    -0.5206695774
   12      C      -2.3739483453     1.7350331344     0.6305827883
   13      H      -1.2230640360    -1.6084422898    -1.4929805836
   14      H       0.5988287502    -1.2606130232    -1.8276542708
   15      H      -0.6374615195     0.1402267707    -2.0475707111
 ----------------------------------------------------------------
 Molecular Point Group                 C1    NOp =  1
 Largest Abelian Subgroup              C1    NOp =  1
 Nuclear Repulsion Energy =   443.0790093247 hartrees
 There are       35 alpha and       35 beta electrons
 Requested basis set is 6-31+G(d)
 There are 57 shells and 183 basis functions

 Total QAlloc Memory Limit   2000 MB
 Mega-Array Size        61 MB
 MEM_STATIC part        62 MB
 A cutoff of  1.0D-11 yielded   1534 shell pairs
 There are     16476 function pairs
 
 -------------------------------------------------------
 OpenMP Integral Computing Module                       
 Release: version 1.0, May 2013, Q-Chem Inc. Pittsburgh 
 -------------------------------------------------------
 Integral Job Info:
 Integral job number is                      11
 Integral operator is                         1
 short-range coefficients                     0
 long-range coefficients              100000000
 Omega coefficients                           0
 if combine SR and LR in K                    0
 Integral screening is                        0
 Integral computing path is                   2
 max size of driver memory is            800000
 size of driver memory is                593474
 size of scratch memory is              2260544
 max col of scratch BK array               1296
 max len of scratch array in speh3          155
 max len of scratch index in speh4           18
 max int batch size is                      520
 min int batch size is                       52
 fixed nKL is                                52
 max L of basis functions is                  2
 order of int derivative is                   0
 number of shells is                         57
 number of basis is                         183
 number of cartesian basis is               183
 number of contracted shell pairs          1534
 number of primitive shell pairs           5263
 maxK2 (contraction) of shell pair           36
 max number of K2 of shell pair               1
 max number of CS2 of shell pair            188
 max number of PS2 of shell pair           1128
 mem total for path MDJ                   43256
 -------------------------------------------------------
 Smallest overlap matrix eigenvalue = 1.92E-05

 Scale SEOQF with 1.000000e-01/1.000000e-01/1.000000e-01

 Standard Electronic Orientation quadrupole field applied
 Nucleus-field energy     =     0.0000000067 hartrees
 Guess from superposition of atomic densities
 Warning:  Energy on first SCF cycle will be non-variational
 A restricted Hartree-Fock SCF calculation will be
 performed using Pulay DIIS extrapolation
 SCF converges when DIIS error is below 1.0E-08
 ---------------------------------------
  Cycle       Energy         DIIS Error
 ---------------------------------------
    1    -492.7831436023      4.86E-02
    2    -490.5577611202      9.68E-03
    3    -489.4371852009      1.64E-02
    4    -490.9605314864      4.62E-03
    5    -491.0973239116      1.33E-03
    6    -491.1204025183      1.03E-03
[...]
 C          0.146 -0.229 -0.113   -0.352  0.119  0.072    0.014 -0.007 -0.012
 H          0.011 -0.007 -0.089   -0.006  0.062  0.182   -0.204 -0.085  0.646
 H         -0.043  0.045  0.015    0.103 -0.101 -0.014    0.076 -0.133  0.066
 H         -0.029  0.035  0.034    0.027 -0.058 -0.078    0.408 -0.310 -0.399
 C          0.002  0.010  0.007   -0.006 -0.003 -0.006   -0.025  0.041 -0.017
 H          0.046 -0.586  0.075   -0.207  0.485  0.130    0.005 -0.014 -0.048
 H         -0.078 -0.304 -0.070    0.015  0.047  0.045   -0.023  0.156 -0.199
 H          0.141  0.158 -0.193   -0.060  0.004 -0.009    0.043 -0.076  0.070
 TransDip  -0.050 -0.080  0.054   -0.013  0.014  0.016    0.185 -0.249  0.055

 Mode:                13                     14                     15
 Frequency:       331.48                 331.79                 366.76
 Force Cnst:      0.0666                 0.0741                 0.0888
 Red. Mass:       1.0290                 1.1421                 1.1203
 IR Active:          YES                    YES                    YES
 IR Intens:       12.073                 73.982                117.797
 Raman Active:       YES                    YES                    YES
               X      Y      Z        X      Y      Z        X      Y      Z
 C          0.005 -0.007  0.011   -0.003  0.013 -0.021    0.004 -0.012  0.023
 O          0.004 -0.011  0.004    0.006  0.032  0.004   -0.010 -0.038  0.003
 O          0.009 -0.004  0.000   -0.013 -0.002  0.009    0.012  0.003 -0.002
 C         -0.004  0.001  0.019    0.008 -0.006 -0.051   -0.008  0.001  0.037
 O         -0.001 -0.008  0.003    0.003  0.042 -0.007    0.002  0.011 -0.002
 C         -0.012  0.005 -0.017   -0.002 -0.039  0.030    0.005  0.030 -0.021
 O         -0.006  0.005  0.008    0.011 -0.019 -0.022   -0.013  0.018 -0.021
 C          0.004  0.003 -0.014   -0.004 -0.017  0.013    0.009 -0.001 -0.001
 H          0.257  0.510  0.029    0.048  0.205  0.242    0.017 -0.141 -0.350
 H          0.280 -0.410  0.147    0.158 -0.241  0.093   -0.460 -0.039  0.613
 H         -0.488  0.008 -0.168   -0.086 -0.107 -0.212   -0.077 -0.230 -0.431
 C         -0.008  0.005 -0.001   -0.013  0.012 -0.003    0.046  0.026  0.006
 H         -0.003  0.002 -0.048    0.008 -0.029  0.102   -0.003 -0.003 -0.076
 H         -0.025  0.208 -0.264    0.058 -0.481  0.610    0.011 -0.041  0.080
 H          0.058 -0.096  0.085   -0.119  0.246 -0.197   -0.019  0.016 -0.008
 TransDip   0.053  0.054 -0.081    0.053 -0.167  0.213   -0.304 -0.168  0.006

 Mode:                16                     17                     18
 Frequency:       373.05                 422.08                 579.61
 Force Cnst:      0.3084                 1.1917                 0.7734
 Red. Mass:       3.7612                11.3537                 3.9072
 IR Active:          YES                    YES                    YES
 IR Intens:       10.693                  0.557                  7.430
 Raman Active:       YES                    YES                    YES
               X      Y      Z        X      Y      Z        X      Y      Z
 C         -0.040  0.059 -0.103   -0.221 -0.172 -0.072   -0.141  0.076  0.055
 O          0.045  0.221  0.026   -0.204 -0.084 -0.013    0.017  0.159 -0.076
 O         -0.090 -0.038  0.054   -0.243 -0.394  0.056   -0.106 -0.092 -0.048
 C          0.051 -0.016 -0.226    0.047  0.122 -0.124    0.136 -0.034  0.283
 O          0.008 -0.037 -0.003    0.004 -0.008  0.002   -0.006  0.011 -0.008
 C          0.006 -0.159  0.113    0.048  0.057  0.049   -0.018 -0.105 -0.104
 O          0.084 -0.106  0.115    0.165  0.328  0.064    0.131 -0.068 -0.056
 C         -0.080  0.043 -0.039    0.474  0.199  0.001   -0.026  0.020  0.071
 H          0.002 -0.100 -0.204    0.002  0.028  0.048    0.003 -0.001 -0.011
 H         -0.269 -0.010  0.339    0.038 -0.022 -0.016   -0.006  0.001  0.003
 H         -0.029 -0.131 -0.236   -0.001 -0.002 -0.008   -0.012  0.007  0.012
 C          0.027  0.011  0.002   -0.005  0.004  0.001    0.001 -0.003  0.000
 H          0.005  0.066  0.418    0.350 -0.184  0.089   -0.001  0.462 -0.737
 H         -0.018  0.373 -0.384    0.015  0.063  0.022   -0.001 -0.064  0.058
 H          0.002 -0.077  0.033   -0.058  0.123 -0.117    0.006 -0.005  0.009
 TransDip  -0.046 -0.014 -0.093   -0.008 -0.019 -0.012    0.067  0.052 -0.019

 Mode:                19                     20                     21
 Frequency:       637.08                 721.90                 794.02
 Force Cnst:      0.2569                 0.8972                 0.9664
 Red. Mass:       1.0742                 2.9220                 2.6017
 IR Active:          YES                    YES                    YES
 IR Intens:      268.047                 56.362                 95.794
 Raman Active:       YES                    YES                    YES
               X      Y      Z        X      Y      Z        X      Y      Z
 C         -0.004 -0.017  0.012   -0.024  0.070  0.133   -0.103 -0.056  0.106
 O          0.009 -0.002  0.008   -0.066 -0.067 -0.061    0.115  0.053 -0.005
 O          0.002  0.015 -0.006    0.056 -0.078 -0.005   -0.078  0.064 -0.081
 C         -0.011 -0.014  0.011    0.085  0.193  0.048   -0.024 -0.149  0.112
 O         -0.001 -0.038  0.038    0.003 -0.010  0.009    0.001 -0.003  0.001
 C          0.002 -0.002 -0.003   -0.129  0.057  0.011    0.093 -0.072 -0.043
 O         -0.003 -0.003 -0.013    0.112 -0.103 -0.101   -0.046  0.082 -0.058
 C          0.005 -0.007  0.018   -0.078  0.016 -0.049    0.041  0.049 -0.059
 H         -0.001 -0.002  0.006   -0.001 -0.003 -0.004    0.000  0.000 -0.004
 H          0.002 -0.003  0.001    0.008 -0.003 -0.006    0.010 -0.003 -0.008
 H          0.005 -0.003 -0.001    0.009 -0.008 -0.010    0.010 -0.009 -0.012
 C          0.002 -0.002  0.001    0.000  0.000  0.000   -0.002  0.002  0.001
 H          0.001  0.008 -0.043    0.077 -0.009  0.910    0.050 -0.356  0.858
 H         -0.018  0.249 -0.230    0.000  0.065 -0.048    0.001  0.006 -0.003
 H         -0.034  0.698 -0.624   -0.005  0.052 -0.049    0.002 -0.062  0.052
 TransDip  -0.076  0.352 -0.381    0.135  0.125  0.154   -0.074 -0.227  0.203

 Mode:                22                     23                     24
 Frequency:       886.49                 913.90                1012.44
 Force Cnst:      3.2870                 4.9652                 0.7335
 Red. Mass:       7.0990                10.0899                 1.2146
 IR Active:          YES                    YES                    YES
 IR Intens:       59.952                 42.446                 40.570
 Raman Active:       YES                    YES                    YES
               X      Y      Z        X      Y      Z        X      Y      Z
 C         -0.222 -0.236  0.333   -0.081  0.396  0.511    0.000  0.001  0.000
 O          0.252 -0.094  0.020   -0.142  0.001 -0.215    0.000  0.000 -0.001
 O         -0.107  0.145 -0.166    0.201 -0.138 -0.052    0.000  0.000  0.000
 C         -0.050  0.155 -0.272    0.004 -0.117 -0.271    0.001  0.000  0.002
 O         -0.004  0.008 -0.011   -0.001 -0.001  0.004    0.000  0.001  0.001
 C         -0.096  0.084  0.070    0.192 -0.206  0.001    0.001 -0.001  0.000
 O          0.123 -0.081  0.046   -0.157  0.100  0.097    0.000  0.001 -0.001
 C          0.013  0.008  0.053    0.025 -0.010  0.020    0.000 -0.001 -0.001
 H         -0.001  0.000  0.009    0.000  0.000  0.002   -0.094  0.052  0.559
 H         -0.010  0.001  0.011    0.002  0.000 -0.003   -0.374  0.031  0.424
 H         -0.010  0.009  0.012    0.000  0.000  0.002   -0.234  0.303  0.435
 C          0.000  0.000 -0.002    0.000 -0.001  0.001    0.059 -0.032 -0.120
 H          0.044  0.376 -0.578   -0.124 -0.202 -0.418    0.000 -0.009  0.017
 H          0.003 -0.069  0.068   -0.003  0.023 -0.027   -0.004 -0.011 -0.010
 H          0.007 -0.091  0.081    0.011  0.050 -0.043    0.005  0.001  0.001
 TransDip  -0.138 -0.200  0.050    0.021  0.199  0.059   -0.098  0.035  0.176

 Mode:                25                     26                     27
 Frequency:      1108.44                1409.58                1439.47
 Force Cnst:      6.2144                15.4786                16.7555
 Red. Mass:       8.5848                13.2221                13.7246
 IR Active:          YES                    YES                    YES
 IR Intens:       65.401                405.745                351.726
 Raman Active:       YES                    YES                    YES
               X      Y      Z        X      Y      Z        X      Y      Z
 C         -0.063 -0.145 -0.039    0.043  0.107 -0.044    0.269  0.612 -0.037
 O          0.047 -0.044  0.040    0.068 -0.092  0.052    0.251 -0.357  0.183
 O         -0.070  0.011 -0.012   -0.085 -0.007 -0.022   -0.470 -0.096 -0.156
 C          0.505  0.382  0.013    0.131  0.119 -0.005    0.038 -0.069 -0.019
 O          0.001 -0.003  0.004    0.005  0.001  0.007    0.004 -0.001  0.008
 C          0.141 -0.180 -0.057    0.045 -0.050 -0.015   -0.044  0.049  0.020
 O         -0.252  0.148  0.072   -0.413 -0.459 -0.099    0.080  0.100  0.025
 C         -0.191 -0.174 -0.040    0.349  0.590  0.159   -0.074 -0.119 -0.033
 H          0.003  0.006 -0.004   -0.023 -0.026  0.007   -0.002  0.001  0.002
 H         -0.001  0.004 -0.006    0.014 -0.011  0.002   -0.001  0.007 -0.006
 H          0.006 -0.004 -0.004   -0.019  0.006 -0.002   -0.006 -0.001 -0.005
 C          0.000  0.000  0.001    0.003 -0.001 -0.001    0.001 -0.002  0.001
 H         -0.323 -0.468 -0.126    0.016 -0.135 -0.097   -0.058 -0.070 -0.011
 H          0.000  0.013 -0.001   -0.016 -0.048 -0.052   -0.011  0.017 -0.081
 H          0.007  0.070 -0.058   -0.054 -0.031  0.020   -0.034  0.057 -0.058
 TransDip   0.121 -0.220 -0.062    0.546  0.343 -0.009    0.118  0.588 -0.034

 Mode:                28                     29                     30
 Frequency:      1576.03                1592.43                1597.20
 Force Cnst:      1.7985                 1.6137                 1.6236
 Red. Mass:       1.2289                 1.0801                 1.0802
 IR Active:          YES                    YES                    YES
 IR Intens:       29.191                  5.270                  1.464
 Raman Active:       YES                    YES                    YES
               X      Y      Z        X      Y      Z        X      Y      Z
 C          0.003  0.006 -0.002    0.000  0.000  0.000    0.001  0.001  0.000
 O          0.003 -0.005  0.003    0.000  0.000  0.000    0.000 -0.001  0.000
 O         -0.004 -0.001 -0.001    0.000  0.000  0.000   -0.001  0.000  0.000
 C         -0.007  0.021  0.002   -0.001  0.003  0.000   -0.001  0.002  0.000
 O          0.000  0.000  0.000    0.000  0.000  0.000    0.000  0.000  0.000
 C          0.024 -0.028 -0.007    0.003 -0.003 -0.001    0.002 -0.002 -0.001
 O         -0.078  0.011  0.010   -0.010  0.000  0.001   -0.007 -0.001  0.000
 C          0.052 -0.076 -0.027    0.007 -0.008 -0.003    0.005 -0.004 -0.002
 H         -0.053 -0.100 -0.018    0.200  0.378  0.228    0.297  0.546 -0.154
 H          0.061 -0.076  0.026   -0.339  0.608 -0.307   -0.176 -0.070  0.208
 H         -0.034  0.028  0.021   -0.196 -0.190 -0.302    0.669 -0.022  0.224
 C          0.002  0.012 -0.003    0.028 -0.067  0.032   -0.067 -0.038 -0.023
 H          0.428  0.848  0.231    0.051  0.102  0.029    0.034  0.066  0.017
 H          0.000 -0.002  0.002    0.000  0.000  0.001    0.001  0.003  0.003
 H          0.002  0.001 -0.001    0.000  0.000  0.000    0.003  0.000  0.000
 TransDip   0.170  0.023 -0.020    0.045 -0.057 -0.008   -0.020 -0.029  0.016

 Mode:                31                     32                     33
 Frequency:      1801.51                1827.18                1876.65
 Force Cnst:     10.4950                 3.1355                 7.5272
 Red. Mass:       5.4886                 1.5940                 3.6276
 IR Active:          YES                    YES                    YES
 IR Intens:      540.154                241.574                324.871
 Raman Active:       YES                    YES                    YES
               X      Y      Z        X      Y      Z        X      Y      Z
 C          0.201 -0.113  0.132    0.088 -0.021  0.026    0.328 -0.135  0.147
 O         -0.076  0.105 -0.058   -0.016  0.012 -0.005   -0.092  0.092 -0.058
 O         -0.093 -0.011 -0.040   -0.039  0.000 -0.012   -0.143 -0.003 -0.050
 C          0.317 -0.268 -0.076   -0.107  0.100  0.022   -0.088  0.096  0.016
 O         -0.042 -0.026 -0.025   -0.053 -0.032 -0.032    0.048  0.029  0.027
 C         -0.198  0.243  0.067    0.068 -0.082 -0.022    0.059 -0.068 -0.017
 O         -0.086  0.010  0.007    0.022 -0.012 -0.003    0.016 -0.011 -0.003
 C          0.015 -0.007 -0.004   -0.002  0.009  0.003   -0.006  0.004  0.003
 H         -0.006 -0.001  0.004   -0.003 -0.003  0.005    0.000 -0.001 -0.002
 H          0.000  0.001  0.000    0.000  0.000  0.000    0.000 -0.001 -0.001
 H         -0.006  0.000  0.002   -0.007  0.000  0.003    0.000 -0.002 -0.002
 C          0.002  0.000 -0.001    0.001  0.000 -0.001    0.000  0.001  0.001
 H          0.054  0.104  0.041   -0.018 -0.041 -0.012   -0.018 -0.025 -0.015
 H          0.103  0.352  0.393    0.133  0.446  0.492   -0.120 -0.407 -0.435
 H          0.549  0.037 -0.010    0.698  0.031 -0.001   -0.637 -0.035  0.014
 TransDip   0.702 -0.056  0.241    0.412 -0.025  0.279    0.431 -0.299  0.241

 Mode:                34                     35                     36
 Frequency:      2888.05                2942.09                3007.19
 Force Cnst:      5.1379                 5.5362                 5.7986
 Red. Mass:       1.0455                 1.0856                 1.0883
 IR Active:          YES                    YES                    YES
 IR Intens:      334.111                255.117                342.778
 Raman Active:       YES                    YES                    YES
               X      Y      Z        X      Y      Z        X      Y      Z
 C          0.000  0.000  0.000    0.000  0.000  0.000    0.000  0.000  0.000
 O          0.000  0.000  0.000    0.000  0.000  0.000    0.000  0.000  0.000
 O          0.000  0.000  0.000    0.000  0.000  0.000    0.000  0.000  0.000
 C          0.000  0.000  0.000    0.000  0.000  0.000    0.000  0.000  0.000
 O          0.000  0.000  0.000    0.000  0.000  0.000    0.000  0.000  0.000
 C          0.000  0.000  0.000    0.000  0.000  0.000    0.000  0.000  0.000
 O          0.000  0.000  0.000    0.000  0.000  0.000    0.000  0.000  0.000
 C          0.000  0.000  0.000    0.000  0.000  0.000   -0.003  0.002  0.001
 H         -0.168  0.071 -0.079    0.111 -0.099  0.047    0.842 -0.451  0.175
 H          0.578  0.552  0.459    0.189  0.183  0.200    0.045  0.089  0.063
 H         -0.058 -0.296  0.126    0.148  0.782 -0.476   -0.066 -0.145  0.100
 C         -0.030 -0.027 -0.042   -0.038 -0.073  0.019   -0.069  0.042 -0.029
 H         -0.004  0.000  0.000    0.002 -0.002  0.000    0.031 -0.011 -0.005
 H          0.000  0.000  0.000    0.000  0.000  0.000    0.000  0.000  0.000
 H         -0.001  0.000  0.000    0.002  0.001  0.002    0.001  0.002 -0.001
 TransDip  -0.027 -0.252 -0.528   -0.294 -0.358  0.217   -0.523  0.275 -0.045

 Mode:                37                     38                     39
 Frequency:      3210.66                4013.61                4118.97
 Force Cnst:      6.5807                 9.9644                10.7729
 Red. Mass:       1.0835                 1.0499                 1.0777
 IR Active:          YES                    YES                    YES
 IR Intens:       32.354                 74.040                 68.185
 Raman Active:       YES                    YES                    YES
               X      Y      Z        X      Y      Z        X      Y      Z
 C          0.000  0.001  0.000    0.000  0.001  0.000    0.000 -0.001  0.000
 O          0.000  0.000  0.000    0.000  0.000  0.000    0.000  0.000  0.000
 O          0.000  0.000  0.000    0.000  0.000  0.000    0.000  0.000  0.000
 C          0.002  0.000  0.000    0.000  0.000  0.000    0.000  0.000  0.000
 O          0.000  0.000  0.000   -0.025 -0.032 -0.034   -0.054  0.026  0.032
 C          0.000  0.000  0.000    0.000  0.000  0.000    0.000  0.000  0.000
 O         -0.002 -0.001  0.000    0.000  0.000  0.000    0.000  0.000  0.000
 C         -0.077  0.028  0.013    0.000  0.000  0.000    0.000  0.000  0.000
 H         -0.030  0.017 -0.005    0.000  0.001  0.000    0.000  0.000  0.000
 H          0.001 -0.001 -0.001   -0.001 -0.001  0.000    0.000  0.000  0.000
 H          0.001  0.002 -0.002    0.000 -0.001  0.000    0.000  0.001  0.000
 C          0.002 -0.001  0.001    0.000  0.000  0.000    0.000  0.000  0.000
 H          0.925 -0.335 -0.157   -0.001  0.000  0.001    0.000  0.000  0.000
 H          0.000  0.001 -0.001    0.463 -0.072 -0.108    0.858 -0.098 -0.163
 H         -0.002  0.000  0.001   -0.067  0.582  0.650    0.004 -0.316 -0.351
 TransDip  -0.180  0.010  0.024    0.070  0.157  0.215    0.152 -0.112 -0.185

 STANDARD THERMODYNAMIC QUANTITIES AT   298.15 K  AND     1.00 ATM

   This Molecule has  1 Imaginary Frequencies
   Zero point vibrational energy:       62.091 kcal/mol

   Atom    1 Element C  Has Mass   12.00000
   Atom    2 Element O  Has Mass   15.99491
   Atom    3 Element O  Has Mass   15.99491
   Atom    4 Element C  Has Mass   12.00000
   Atom    5 Element O  Has Mass   15.99491
   Atom    6 Element C  Has Mass   12.00000
   Atom    7 Element O  Has Mass   15.99491
   Atom    8 Element C  Has Mass   12.00000
   Atom    9 Element H  Has Mass    1.00783
   Atom   10 Element H  Has Mass    1.00783
   Atom   11 Element H  Has Mass    1.00783
   Atom   12 Element C  Has Mass   12.00000
   Atom   13 Element H  Has Mass    1.00783
   Atom   14 Element H  Has Mass    1.00783
   Atom   15 Element H  Has Mass    1.00783
   Molecular Mass:   130.026620 amu
   Principal axes and moments of inertia in amu*Bohr^2:
                             1           2           3
    Eigenvalues --      951.85445  2498.57331  2639.67935
          X               0.99977    -0.01583    -0.01453
          Y               0.01573     0.99985    -0.00666
          Z               0.01463     0.00643     0.99987
   Rotational Symmetry Number is   1
   The Molecule is an Asymmetric Top
   Translational Enthalpy:        0.889 kcal/mol
   Rotational Enthalpy:           0.889 kcal/mol
   Vibrational Enthalpy:         68.163 kcal/mol
   gas constant (RT):             0.592 kcal/mol
   Translational Entropy:        40.501  cal/mol.K
   Rotational Entropy:           30.219  cal/mol.K
   Vibrational Entropy:          42.329  cal/mol.K

   Total Enthalpy:               70.533 kcal/mol
   Total Entropy:               113.048  cal/mol.K
Archival summary:
1\1\fock\FREQ\HF\6-31+G*\456(2-,1)\emavera\ThuApr2713:35:132017ThuApr2713:35:132017\0\\#,FREQ,HF,6-31+G*,\\-2,1\O\C,1,1.30863\H,2,1.09002,1,101.482\C,1,1.37068,2,122.385,3,177,0\C,4,1.31379,1,128.426,2,8.70487,0\C,4,1.56885,1,115.084,2,-161.002,0\O,6,1.22877,4,114.973,1,-152.444,0\O,6,1.23035,4,112.695,1,30.7281,0\H,3,2.41317,2,154.75,1,8.56811,0\C,9,1.1074,3,148.309,2,-140.457,0\H,10,1.11308,9,107.447,3,89.6999,0\H,10,1.11655,9,108.269,3,-26.8132,0\H,8,2.47007,6,114.615,4,16.4703,0\O,13,0.954627,8,128.259,6,53.5312,0\H,14,0.950293,13,102.809,8,7.00077,0\\HF=-491.918128\\@

 Total job time:  227.16s(wall), 224.87s(cpu) 
 Thu Apr 27 13:35:15 2017

        *************************************************************
        *                                                           *
        *  Thank you very much for using Q-Chem.  Have a nice day.  *
        *                                                           *
        *************************************************************


0 sent ACK to 0 
now end server 0 ... 
cleanup process ... done
