
Running Job 1 of 1 kari_fsm_solv_with_onsager.qcin
qchem kari_fsm_solv_with_onsager.qcin_9635.0 /tmp/kari_fsm_solv_with_onsager.qcin/ 1
/programs/x86_64/lib/qchem-4.3.2/bin/mpi/mpirun_qchem -machinefile /var/spool/torque/aux//114826.vali -np 1 /programs/x86_64/lib/qchem-4.3.2/exe/qcprog.exe kari_fsm_solv_with_onsager.qcin_9635.0 /tmp/kari_fsm_solv_with_onsager.qcin/

Process 0 of 1 is on bt2600-16.csail.mit.edu - thread support 0
initial socket setup ...start
initial socket setup ...done 
now start server 0 ... 

cmd = ssh thor /programs/x86_64/lib/qchem-4.3.2/bin/get_hostid 888087196 > /tmp/kari_fsm_solv_with_onsager.qcin/lic.dat
                  Welcome to Q-Chem
     A Quantum Leap Into The Future Of Chemistry


 Q-Chem 4.3, Q-Chem, Inc., Pleasanton, CA (2015)

 Y. Shao,  Z. Gan,  E. Epifanovsky,  A. T. B. Gilbert,  M. Wormit,  
 J. Kussmann,  A. W. Lange,  A. Behn,  J. Deng,  X. Feng,  D. Ghosh,  
 M. Goldey,  P. R. Horn,  L. D. Jacobson,  I. Kaliman,  R. Z. Khaliullin,  
 T. Kus,  A. Landau,  J. Liu,  E. I. Proynov,  Y. M. Rhee,  R. M. Richard,  
 M. A. Rohrdanz,  R. P. Steele,  E. J. Sundstrom,  H. L. Woodcock III,  
 P. M. Zimmerman,  D. Zuev,  B. Albrecht,  E. Alguire,  B. Austin,  
 S. A. Baeppler,  G. J. O. Beran,  Y. A. Bernard,  E. Berquist,  
 K. Brandhorst,  K. B. Bravaya,  S. T. Brown,  D. Casanova,  C.-M. Chang,  
 Y. Chen,  S. H. Chien,  K. D. Closser,  D. L. Crittenden,  M. Diedenhofen,  
 R. A. DiStasio Jr.,  H. Do,  A. D. Dutoi,  R. G. Edgar,  P.-T. Fang,  
 S. Fatehi,  Q. Feng,  L. Fusti-Molnar,  A. Ghysels,  
 A. Golubeva-Zadorozhnaya,  J. Gomes,  A. Gunina,  M. W. D. Hanson-Heine,  
 P. H. P. Harbach,  A. W. Hauser,  E. G. Hohenstein,  Z. C. Holden,  K. Hui,  
 T.-C. Jagau,  H. Ji,  B. Kaduk,  K. Khistyaev,  Jaehoon Kim,  Jihan Kim,  
 R. A. King,  P. Klunzinger,  D. Kosenkov,  T. Kowalczyk,  C. M. Krauter,  
 K. U. Lao,  A. Laurent,  K. V. Lawler,  S. Lehtola,  S. V. Levchenko,  
 C. Y. Lin,  Y.-S. Lin,  F. Liu,  E. Livshits,  R. C. Lochan,  A. Luenser,  
 P. Manohar,  S. F. Manzer,  S.-P. Mao,  N. Mardirossian,  A. V. Marenich,  
 L. A. Martinez-Martinez,  S. A. Maurer,  N. J. Mayhall,  K. Nanda,  
 C. M. Oana,  R. Olivares-Amaya,  D. P. O'Neill,  J. A. Parkhill,  
 T. M. Perrine,  R. Peverati,  P. A. Pieniazek,  F. Plasser,  A. Prociuk,  
 D. R. Rehn,  E. Rosta,  N. J. Russ,  N. Sergueev,  S. M. Sharada,  
 S. Sharma,  D. W. Small,  A. Sodt,  T. Stauch,  T. Stein,  D. Stuck,  
 Y.-C. Su,  A. J. W. Thom,  T. Tsuchimochi,  L. Vogt,  O. Vydrov,  T. Wang,  
 M. A. Watson,  J. Wenzel,  A. White,  C. F. Williams,  V. Vanovschi,  
 S. Yeganeh,  S. R. Yost,  Z.-Q. You,  I. Y. Zhang,  X. Zhang,  Y. Zhao,  
 B. R. Brooks,  G. K. L. Chan,  D. M. Chipman,  C. J. Cramer,  
 W. A. Goddard III,  M. S. Gordon,  W. J. Hehre,  A. Klamt,  
 H. F. Schaefer III,  M. W. Schmidt,  C. D. Sherrill,  D. G. Truhlar,  
 A. Warshel,  X. Xu,  A. Aspuru-Guzik,  R. Baer,  A. T. Bell,  N. A. Besley,  
 J.-D. Chai,  A. Dreuw,  B. D. Dunietz,  T. R. Furlani,  S. R. Gwaltney,  
 C.-P. Hsu,  Y. Jung,  J. Kong,  D. S. Lambrecht,  W. Liang,  C. Ochsenfeld,  
 V. A. Rassolov,  L. V. Slipchenko,  J. E. Subotnik,  T. Van Voorhis,  
 J. M. Herbert,  A. I. Krylov,  P. M. W. Gill,  M. Head-Gordon

 Contributors to earlier versions of Q-Chem not listed above: 
 R. D. Adamson,  J. Baker,  E. F. C. Byrd,  A. K. Chakraborty,  C.-L. Cheng,  
 H. Dachsel,  R. J. Doerksen,  G. Hawkins,  A. Heyden,  S. Hirata,  
 G. Kedziora,  F. J. Keil,  C. Kelley,  P. P. Korambath,  W. Kurlancheek,  
 A. M. Lee,  M. S. Lee,  D. Liotard,  I. Lotan,  P. E. Maslen,  N. Nair,  
 D. Neuhauser,  R. Olson,  B. Peters,  J. Ritchie,  N. E. Schultz,  
 N. Shenvi,  A. C. Simmonett,  K. S. Thanthiriwatte,  Q. Wu,  W. Zhang

 Please cite Q-Chem as follows:
 Y. Shao et al., Mol. Phys. 113, 184-215 (2015)
 DOI: 10.1080/00268976.2014.952696

 Q-Chem 4.3.0 for Intel X86 Linux

 Parts of Q-Chem use Armadillo 5.200.1 (Boston Tea Smuggler).
 http://arma.sourceforge.net/

 Q-Chem begins on Mon May  1 12:40:51 2017  

Host: 
0

     Scratch files written to /tmp/kari_fsm_solv_with_onsager.qcin//
 Oct1215 13750_ 19228  19214 4150   
 Parallel job on  1  processors
Processing $rem in /programs/x86_64/lib/qchem-4.3.2/config/preferences.
 MEM_TOTAL  2000 
 Now reading second FSM geometry

Checking the input file for inconsistencies... 	...done.
 In fsm_init()
 FSM_FNODE : 12
 FSM_NGRAD : 3
done with init

--------------------------------------------------------------
User input:
--------------------------------------------------------------
$molecule
-2  1
C    1.35554    0.24384    0.05485
O    2.27286    0.27594   -0.81703
O    1.34948    0.86917    1.16185
C    0.08028   -0.70682   -0.22526
C   -0.23305   -0.67675   -1.78759
O    0.25010   -1.96139    0.19462
C   -1.14952    0.04215    0.39764
O   -2.00535   -0.48110    1.10685
C   -1.35638    1.53121    0.03887
H   -0.54250    1.94719   -0.55924
H   -1.42829    2.10063    0.97341
H   -2.30959    1.63212   -0.50558
H   -1.08694   -1.34541   -1.97767
H    0.66449   -1.07453   -2.27198
H   -0.44027    0.32127   -2.21502
****
C    1.49350    0.18120   -0.37275
O    1.85084    1.30923    0.07829
O    1.98910   -0.46545   -1.33773
C    0.30748   -0.49700    0.37363
C   -1.25681    0.44808   -1.42492
O    0.56613   -1.31533    1.25406
C   -1.20502   -0.09797    0.04581
O   -2.09542   -1.07992    0.24945
C   -1.46361    1.13938    0.99992
H   -2.48366    1.50237    0.79392
H   -0.73924    1.95759    0.87115
H   -1.42786    0.78455    2.03837
H   -1.05888   -0.37493   -2.12299
H   -0.54186    1.25972   -1.62866
H   -2.28030    0.81272   -1.60269
$end

$solvent
CavityRadius    30
Dielectric     78.39
$end

$rem
jobtype         fsm
fsm_ngrad       3
fsm_nnode       12
fsm_mode     2
fsm_opt_mode 2
method          b3lyp
basis           6-31+G(d)
SOLVENT_METHOD ONSAGER
--------------------------------------------------------------
 ----------------------------------------------------------------
             Standard Nuclear Orientation (Angstroms)
    I     Atom           X                Y                Z
 ----------------------------------------------------------------
    1      C       1.3555400000     0.2438400000     0.0548500000
    2      O       2.2728600000     0.2759400000    -0.8170300000
    3      O       1.3494800000     0.8691700000     1.1618500000
    4      C       0.0802800000    -0.7068200000    -0.2252600000
    5      C      -0.2330500000    -0.6767500000    -1.7875900000
    6      O       0.2501000000    -1.9613900000     0.1946200000
    7      C      -1.1495200000     0.0421500000     0.3976400000
    8      O      -2.0053500000    -0.4811000000     1.1068500000
    9      C      -1.3563800000     1.5312100000     0.0388700000
   10      H      -0.5425000000     1.9471900000    -0.5592400000
   11      H      -1.4282900000     2.1006300000     0.9734100000
   12      H      -2.3095900000     1.6321200000    -0.5055800000
   13      H      -1.0869400000    -1.3454100000    -1.9776700000
   14      H       0.6644900000    -1.0745300000    -2.2719800000
   15      H      -0.4402700000     0.3212700000    -2.2150200000
 ----------------------------------------------------------------
 Nuclear Repulsion Energy =   452.2692779634 hartrees
 There are       35 alpha and       35 beta electrons
 Requested basis set is 6-31+G(d)
 There are 57 shells and 183 basis functions

 Total QAlloc Memory Limit   2000 MB
 Mega-Array Size        61 MB
 MEM_STATIC part        62 MB

                       Distance Matrix (Angstroms)
             C (  1)   O (  2)   O (  3)   C (  4)   C (  5)   O (  6)
   O (  2)  1.265970
   O (  3)  1.271426  2.262856
   C (  4)  1.615086  2.474554  2.453301
   C (  5)  2.601094  2.851173  3.686932  1.593724
   O (  6)  2.470743  3.181295  3.186886  1.333823  2.410994
   C (  7)  2.536436  3.639061  2.740982  1.568875  2.476280  2.452412
   O (  8)  3.595528  4.751579  3.616786  2.485019  3.399575  2.847890
   C (  9)  3.002014  3.934419  3.003508  2.672552  3.077810  3.847504
   H ( 10)  2.623178  3.284172  2.775584  2.746483  2.913703  4.058758
   H ( 11)  3.470033  4.498186  3.044341  3.405050  4.094577  4.463576
   H ( 12)  3.959114  4.789058  4.092824  3.355696  3.359531  4.467170
   H ( 13)  3.552824  3.906932  4.549406  2.200259  1.101074  2.624110
   H ( 14)  2.762207  2.554898  4.004793  2.159994  1.094733  2.653744
   H ( 15)  2.895382  3.052459  3.860913  2.299366  1.105297  3.390208
             C (  7)   O (  8)   C (  9)   H ( 10)   H ( 11)   H ( 12)
   O (  8)  1.228501
   C (  9)  1.545576  2.368783
   H ( 10)  2.216590  3.288218  1.092326
   H ( 11)  2.155589  2.648799  1.096711  1.776847
   H ( 12)  2.165542  2.675480  1.102369  1.795760  1.784265
   H ( 13)  2.751606  3.332382  3.523347  3.626234  4.549790  3.539436
   H ( 14)  3.415330  4.347033  4.026639  3.677104  4.999393  4.392183
   H ( 15)  2.721569  3.758736  2.717210  2.322859  3.782643  2.852169
             H ( 13)   H ( 14)
   H ( 14)  1.796525
   H ( 15)  1.803424  1.781010
 
 A cutoff of  1.0D-11 yielded   1556 shell pairs
 There are     16749 function pairs
 
 -------------------------------------------------------
 OpenMP Integral Computing Module                       
 Release: version 1.0, May 2013, Q-Chem Inc. Pittsburgh 
 -------------------------------------------------------
 Integral Job Info:
 Integral job number is                      11
 Integral operator is                         1
 short-range coefficients                     0
 long-range coefficients              100000000
 Omega coefficients                           0
 if combine SR and LR in K                    0
 Integral screening is                        0
 Integral computing path is                   2
 max size of driver memory is            800000
 size of driver memory is                593474
 size of scratch memory is              2260544
 max col of scratch BK array               1296
 max len of scratch array in speh3          155
 max len of scratch index in speh4           18
 max int batch size is                      520
 min int batch size is                       52
 fixed nKL is                                52
 max L of basis functions is                  2
 order of int derivative is                   0
 number of shells is                         57
 number of basis is                         183
 number of cartesian basis is               183
 number of contracted shell pairs          1556
 number of primitive shell pairs           5353
 maxK2 (contraction) of shell pair           36
 max number of K2 of shell pair               1
 max number of CS2 of shell pair            200
 max number of PS2 of shell pair           1200
 mem total for path MDJ                   44296
 -------------------------------------------------------
 Smallest overlap matrix eigenvalue = 2.60E-05
 Placing solute cavity origin at the center of mass
 Center of Onsager solute cavity (Angst): (   0.069547,  -0.091817,   0.011282)
 Solvent multipole matrices computed through 15th order

 Scale SEOQF with 1.000000e-01/1.000000e-01/1.000000e-01

 Standard Electronic Orientation quadrupole field applied
 Guess from superposition of atomic densities
 Warning:  Energy on first SCF cycle will be non-variational
 A restricted hybrid HF-DFT SCF calculation will be
 performed using Pulay DIIS extrapolation
 Kirkwood-Onsager solvation model will be applied
 Exchange:     0.2000 Hartree-Fock + 0.0800 Slater + 0.7200 B88
 Correlation:  0.1900 VWN1RPA + 0.8100 LYP
 Using SG-1 standard quadrature grid
 SCF converges when DIIS error is below 1.0E-08
 Kirkwood-Onsager SCRF: 
 Maximum multipole order     = 15
 Solvent dielectric constant = 78.3900
 Cavity radius               = 56.6917 bohr
 Born term (E_born)          = -0.03482849 a.u. = -21.8552 kcal/mol
 CPU 0.00 s  wall 0.00 s
 Inaccurate integrated density:
   Number of electrons =    70
   Numerical integral  =    67.999829050056
   Relative error      =    -2.8573870713 %
 CPU 6.10 s  wall 7.71 s
 ---------------------------------------
  Cycle       Energy         DIIS Error
 ---------------------------------------
    1    -496.1849781838      4.84E-02
 CPU 0.00 s  wall 0.00 s
 CPU 6.92 s  wall 9.27 s
    2    -494.5996508481      1.07E-02
 CPU 0.00 s  wall 0.00 s
 CPU 6.96 s  wall 8.35 s
    3    -489.2231683450      2.84E-02
 CPU 0.00 s  wall 0.00 s
 CPU 6.93 s  wall 8.95 s
    4    -494.6604796751      9.78E-03
 CPU 0.00 s  wall 0.00 s
 CPU 6.85 s  wall 8.43 s
    5    -494.9956529301      2.70E-03
 CPU 0.00 s  wall 0.00 s
 CPU 6.95 s  wall 9.24 s
    6    -495.0254510917      1.71E-03
 CPU 0.00 s  wall 0.00 s
 CPU 6.93 s  wall 9.06 s
    7    -495.0349882028      6.54E-04
 CPU 0.00 s  wall 0.00 s
 CPU 6.78 s  wall 7.35 s
    8    -495.0360963283      3.39E-04
 CPU 0.00 s  wall 0.00 s
 CPU 6.71 s  wall 7.82 s
    9    -495.0364751025      7.12E-05
 CPU 0.00 s  wall 0.00 s
 CPU 6.66 s  wall 7.66 s
   10    -495.0364880634      3.75E-05
 CPU 0.00 s  wall 0.00 s
 CPU 6.64 s  wall 7.69 s
   11    -495.0364925690      1.17E-05
 CPU 0.00 s  wall 0.00 s
 CPU 6.51 s  wall 6.68 s
   12    -495.0364930905      4.22E-06
 CPU 0.00 s  wall 0.00 s
 CPU 6.46 s  wall 7.11 s
   13    -495.0364931594      1.01E-06
 CPU 0.00 s  wall 0.00 s
 CPU 6.46 s  wall 7.20 s
   14    -495.0364931621      2.58E-07
 CPU 0.00 s  wall 0.00 s
 CPU 6.10 s  wall 6.77 s
   15    -495.0364931633      1.14E-07
 CPU 0.00 s  wall 0.00 s
 CPU 5.86 s  wall 6.54 s
   16    -495.0364931631      2.68E-08
 CPU 0.00 s  wall 0.00 s
 CPU 5.58 s  wall 6.34 s
   17    -495.0364931626      1.09E-08
 CPU 0.00 s  wall 0.00 s
 CPU 5.09 s  wall 5.83 s
   18    -495.0364931630      2.09E-09 Convergence criterion met
 ---------------------------------------
 SCF time:  CPU 296.76 s  wall 368.74 s
 SCF   energy in the final basis set = -495.0364931630
 Total energy in the final basis set = -495.0364931630
 
 --------------------------------------------------------------
 
                    Orbital Energies (a.u.)
 --------------------------------------------------------------
 
 Alpha MOs
 -- Occupied --
-18.853 -18.778 -18.777 -18.731  -9.976  -9.948  -9.920  -9.915
 -9.883  -0.743  -0.697  -0.610  -0.602  -0.466  -0.412  -0.319
 -0.230  -0.183  -0.165  -0.151  -0.140  -0.126  -0.112  -0.094
 -0.079  -0.070  -0.060  -0.054  -0.025   0.039   0.058   0.069
  0.088   0.126   0.139
 -- Virtual --
  0.218   0.238   0.260   0.266   0.279   0.293   0.302   0.304
  0.307   0.320   0.328   0.337   0.345   0.352   0.360   0.374
  0.388   0.388   0.392   0.409   0.416   0.463   0.482   0.495
  0.503   0.510   0.512   0.527   0.540   0.554   0.555   0.563
  0.569   0.578   0.585   0.591   0.606   0.608   0.617   0.626
  0.633   0.651   0.655   0.661   0.664   0.674   0.680   0.717
  0.738   0.788   0.813   0.860   0.922   0.964   0.992   0.996
  1.038   1.049   1.067   1.084   1.126   1.142   1.152   1.183
  1.195   1.228   1.255   1.285   1.289   1.345   1.370   1.390
  1.408   1.435   1.443   1.487   1.543   1.580   1.592   1.616
  1.619   1.636   1.662   1.674   1.678   1.684   1.716   1.747
  1.756   1.776   1.791   1.832   1.898   1.912   1.938   1.962
  1.990   2.030   2.063   2.073   2.095   2.105   2.153   2.183
  2.189   2.208   2.226   2.254   2.290   2.305   2.318   2.353
  2.389   2.398   2.412   2.460   2.479   2.536   2.549   2.573
  2.629   2.635   2.662   2.697   2.749   2.793   2.852   2.909
  2.964   2.988   3.024   3.087   3.169   3.297   3.349   3.394
  3.454   3.509   3.583   4.455   4.528   4.605   4.627   4.753
  4.768   4.852   4.990   5.095
 --------------------------------------------------------------
 
          Ground-State Mulliken Net Atomic Charges

     Atom                 Charge (a.u.)
  ----------------------------------------
      1 C                     0.343584
      2 O                    -0.629498
      3 O                    -0.597261
      4 C                    -0.227274
      5 C                    -0.509667
      6 O                    -0.654457
      7 C                     0.297416
      8 O                    -0.478965
      9 C                    -0.682514
     10 H                     0.227551
     11 H                     0.201670
     12 H                     0.165910
     13 H                     0.171655
     14 H                     0.226045
     15 H                     0.145804
  ----------------------------------------
  Sum of atomic charges =    -2.000000

 -----------------------------------------------------------------
                    Cartesian Multipole Moments
 -----------------------------------------------------------------
    Charge (ESU x 10^10)
                -9.6064
    Dipole Moment (Debye)
         X      -4.6969      Y       3.5725      Z      -1.9472
       Tot       6.2141
    Quadrupole Moments (Debye-Ang)
        XX     -92.2652     XY      -6.3475     YY     -82.1120
        XZ       5.0699     YZ      -0.7466     ZZ     -76.4613
    Octopole Moments (Debye-Ang^2)
       XXX      -7.7694    XXY     -16.0165    XYY       1.7280
       YYY      14.2146    XXZ       2.0594    XYZ      -5.5505
       YYZ       1.8469    XZZ       2.2117    YZZ      -2.4851
       ZZZ      31.2812
    Hexadecapole Moments (Debye-Ang^3)
      XXXX    -919.7645   XXXY     -20.9501   XXYY    -237.6609
      XYYY      17.9295   YYYY    -584.1684   XXXZ      91.1746
      XXYZ      -8.7811   XYYZ       4.7042   YYYZ     -34.9881
      XXZZ    -238.9157   XYZZ     -12.6085   YYZZ    -166.1841
      XZZZ      26.2529   YZZZ     -46.1732   ZZZZ    -509.8295
 -----------------------------------------------------------------
 beginning FSman 

*******************************************
*******************************************
******** Starting FSM Calculation *********
*******************************************
*******************************************
-FSM parameters:
Maximum displacement of each coordinate during optimization (Angstrom)      0.05
Maximum optimization steps for each new node                                3
The scaling factor for optimization (hartrees/Angstrom^2)                   1.75
The number of LST interpolations used for reparameterization                100
-Aligning product structure to maximum coincidence with the reactant structure
 Total R --> P Distance 5.270933New node interpolation distace (Angstroms): 0.44
-Performing force calculation on reactant structure in state:0
 ----------------------------------------------------------------
             Standard Nuclear Orientation (Angstroms)
    I     Atom           X                Y                Z
 ----------------------------------------------------------------
    1      C       1.6608072392     0.0626716694     0.4835994490
    2      O       2.5781224004     0.0947715001    -0.3882759518
    3      O       1.6547472712     0.6879983708     1.5905936096
    4      C       0.3855539662    -0.8879833159     0.2034909266
    5      C       0.0722256190    -0.8579134745    -1.3588308322
    6      O       0.5553730704    -2.1425466981     0.6233687117
    7      C      -0.8442395466    -0.1390172667     0.8263876408
    8      O      -1.7000650322    -0.6622645066     1.5355938997
    9      C      -1.0510984555     1.3500348786     0.4676195333
   10      H      -0.2372227486     1.7660126843    -0.1304873117
   11      H      -1.1230080761     1.9194518749     1.4021546036
   12      H      -2.0043034273     1.4509443463    -0.0768275947
   13      H      -0.7816598767    -1.5265699473    -1.5489098295
   14      H       0.9697608845    -1.2556913762    -1.8432182770
   15      H      -0.1349932879     0.1401012610    -1.7862585775
 ----------------------------------------------------------------
 Nuclear Repulsion Energy =   452.2716636841 hartrees
 There are       35 alpha and       35 beta electrons

                       Distance Matrix (Angstroms)
             C (  1)   O (  2)   O (  3)   C (  4)   C (  5)   O (  6)
   O (  2)  1.265964
   O (  3)  1.271419  2.262844
   C (  4)  1.615078  2.474541  2.453288
   C (  5)  2.601080  2.851158  3.686912  1.593715
   O (  6)  2.470730  3.181278  3.186869  1.333816  2.410981
   C (  7)  2.536423  3.639042  2.740967  1.568867  2.476267  2.452399
   O (  8)  3.595509  4.751554  3.616767  2.485006  3.399557  2.847875
   C (  9)  3.001998  3.934398  3.003492  2.672538  3.077794  3.847484
   H ( 10)  2.623164  3.284154  2.775569  2.746468  2.913687  4.058737
   H ( 11)  3.470015  4.498163  3.044325  3.405033  4.094555  4.463553
   H ( 12)  3.959093  4.789032  4.092802  3.355679  3.359513  4.467146
   H ( 13)  3.552806  3.906911  4.549382  2.200248  1.101069  2.624096
   H ( 14)  2.762192  2.554884  4.004772  2.159983  1.094727  2.653730
   H ( 15)  2.895367  3.052443  3.860893  2.299354  1.105291  3.390190
             C (  7)   O (  8)   C (  9)   H ( 10)   H ( 11)   H ( 12)
   O (  8)  1.228494
   C (  9)  1.545568  2.368771
   H ( 10)  2.216578  3.288201  1.092320
   H ( 11)  2.155578  2.648785  1.096705  1.776837
   H ( 12)  2.165531  2.675466  1.102363  1.795751  1.784256
   H ( 13)  2.751592  3.332365  3.523328  3.626215  4.549766  3.539417
   H ( 14)  3.415312  4.347010  4.026618  3.677085  4.999366  4.392160
   H ( 15)  2.721554  3.758716  2.717196  2.322847  3.782623  2.852154
             H ( 13)   H ( 14)
   H ( 14)  1.796515
   H ( 15)  1.803415  1.781001
 
 Requested basis set is 6-31+G(d)
 There are 57 shells and 183 basis functions
 A cutoff of  1.0D-11 yielded   1556 shell pairs
 There are     16749 function pairs
 Smallest overlap matrix eigenvalue = 2.60E-05
 Placing solute cavity origin at the center of mass
 Center of Onsager solute cavity (Angst): (   0.374821,  -0.272983,   0.440032)
 Solvent multipole matrices computed through 15th order
 Guess from superposition of atomic densities
 Warning:  Energy on first SCF cycle will be non-variational
 A restricted hybrid HF-DFT SCF calculation will be
 performed using Pulay DIIS extrapolation
 Kirkwood-Onsager solvation model will be applied
 Exchange:     0.2000 Hartree-Fock + 0.0800 Slater + 0.7200 B88
 Correlation:  0.1900 VWN1RPA + 0.8100 LYP
 Using SG-1 standard quadrature grid
 SCF converges when DIIS error is below 1.0E-08
 Kirkwood-Onsager SCRF: 
 Maximum multipole order     = 15
 Solvent dielectric constant = 78.3900
 Cavity radius               = 56.6917 bohr
 Born term (E_born)          = -0.03482849 a.u. = -21.8552 kcal/mol
 CPU 0.00 s  wall 0.00 s
 Inaccurate integrated density:
   Number of electrons =    70
   Numerical integral  =    67.999829107020
   Relative error      =    -2.8573869900 %
 CPU 5.98 s  wall 7.41 s
 ---------------------------------------
  Cycle       Energy         DIIS Error
 ---------------------------------------
    1    -496.1850694242      4.84E-02
 CPU 0.00 s  wall 0.00 s
 CPU 6.75 s  wall 8.73 s
    2    -494.5996501288      1.07E-02
 CPU 0.00 s  wall 0.00 s
 CPU 6.79 s  wall 7.68 s
    3    -489.2231210053      2.84E-02
 CPU 0.00 s  wall 0.00 s
 CPU 6.76 s  wall 8.35 s
    4    -494.6604891948      9.78E-03
 CPU 0.00 s  wall 0.00 s
 CPU 6.69 s  wall 8.00 s
    5    -494.9956572559      2.70E-03
 CPU 0.00 s  wall 0.00 s
 CPU 6.68 s  wall 7.99 s
    6    -495.0254512604      1.71E-03
 CPU 0.00 s  wall 0.00 s
 CPU 6.77 s  wall 8.19 s
    7    -495.0349882782      6.54E-04
 CPU 0.00 s  wall 0.00 s
 CPU 6.68 s  wall 8.33 s
    8    -495.0360963415      3.39E-04
 CPU 0.00 s  wall 0.00 s
 CPU 6.54 s  wall 7.16 s
    9    -495.0364751000      7.12E-05
 CPU 0.00 s  wall 0.00 s
 CPU 6.40 s  wall 6.65 s
   10    -495.0364880608      3.75E-05
 CPU 0.00 s  wall 0.00 s
 CPU 6.44 s  wall 7.70 s
   11    -495.0364925662      1.17E-05
 CPU 0.00 s  wall 0.00 s
 CPU 6.36 s  wall 7.44 s
   12    -495.0364930877      4.22E-06
 CPU 0.00 s  wall 0.00 s
 CPU 6.38 s  wall 7.10 s
   13    -495.0364931566      1.01E-06
 CPU 0.00 s  wall 0.00 s
 CPU 6.14 s  wall 7.40 s
   14    -495.0364931593      2.58E-07
 CPU 0.00 s  wall 0.00 s
 CPU 5.91 s  wall 6.93 s
   15    -495.0364931604      1.14E-07
 CPU 0.00 s  wall 0.00 s
 CPU 5.65 s  wall 6.39 s
   16    -495.0364931604      2.68E-08
 CPU 0.00 s  wall 0.00 s
 CPU 5.50 s  wall 6.57 s
   17    -495.0364931596      1.09E-08
 CPU 0.00 s  wall 0.00 s
 CPU 4.95 s  wall 5.42 s
   18    -495.0364931602      2.09E-09 Convergence criterion met
 ---------------------------------------
 SCF time:  CPU 290.03 s  wall 356.12 s
 SCF   energy in the final basis set = -495.0364931602
 Total energy in the final basis set = -495.0364931602
 
 --------------------------------------------------------------
 
                    Orbital Energies (a.u.)
 --------------------------------------------------------------
 
 Alpha MOs
 -- Occupied --
-18.853 -18.778 -18.777 -18.731  -9.976  -9.948  -9.920  -9.915
 -9.883  -0.743  -0.697  -0.610  -0.602  -0.466  -0.412  -0.319
 -0.230  -0.183  -0.165  -0.151  -0.140  -0.126  -0.112  -0.094
 -0.079  -0.070  -0.060  -0.054  -0.025   0.039   0.058   0.069
  0.088   0.126   0.139
 -- Virtual --
  0.218   0.238   0.260   0.266   0.279   0.293   0.302   0.304
  0.307   0.320   0.328   0.337   0.345   0.352   0.360   0.374
  0.388   0.388   0.392   0.409   0.416   0.463   0.482   0.495
  0.503   0.510   0.512   0.527   0.540   0.554   0.555   0.563
  0.569   0.578   0.585   0.591   0.606   0.608   0.617   0.626
  0.633   0.651   0.655   0.661   0.664   0.674   0.680   0.717
  0.738   0.788   0.813   0.860   0.922   0.964   0.992   0.996
  1.038   1.049   1.067   1.084   1.126   1.142   1.152   1.183
  1.195   1.228   1.255   1.285   1.289   1.345   1.370   1.390
  1.408   1.435   1.443   1.487   1.543   1.580   1.592   1.616
  1.619   1.636   1.662   1.674   1.678   1.684   1.716   1.747
  1.756   1.776   1.791   1.832   1.898   1.912   1.938   1.962
  1.990   2.030   2.063   2.073   2.095   2.105   2.153   2.183
  2.189   2.208   2.226   2.254   2.290   2.305   2.318   2.353
  2.389   2.398   2.412   2.460   2.479   2.536   2.549   2.573
  2.629   2.635   2.662   2.697   2.749   2.793   2.852   2.909
  2.964   2.989   3.024   3.087   3.169   3.297   3.349   3.394
  3.454   3.509   3.583   4.455   4.528   4.605   4.627   4.753
  4.768   4.852   4.990   5.095
 --------------------------------------------------------------
 
          Ground-State Mulliken Net Atomic Charges

     Atom                 Charge (a.u.)
  ----------------------------------------
      1 C                     0.343594
      2 O                    -0.629498
      3 O                    -0.597261
      4 C                    -0.227318
      5 C                    -0.509648
      6 O                    -0.654457
      7 C                     0.297426
      8 O                    -0.478966
      9 C                    -0.682513
     10 H                     0.227552
     11 H                     0.201671
     12 H                     0.165911
     13 H                     0.171656
     14 H                     0.226046
     15 H                     0.145805
  ----------------------------------------
  Sum of atomic charges =    -2.000000

 -----------------------------------------------------------------
                    Cartesian Multipole Moments
 -----------------------------------------------------------------
    Charge (ESU x 10^10)
                -9.6064
    Dipole Moment (Debye)
         X      -4.6968      Y       3.5725      Z      -1.9472
       Tot       6.2140
    Quadrupole Moments (Debye-Ang)
        XX     -92.2649     XY      -6.3475     YY     -82.1118
        XZ       5.0699     YZ      -0.7466     ZZ     -76.4612
    Octopole Moments (Debye-Ang^2)
       XXX      -7.7693    XXY     -16.0164    XYY       1.7281
       YYY      14.2144    XXZ       2.0594    XYZ      -5.5505
       YYZ       1.8469    XZZ       2.2117    YZZ      -2.4850
       ZZZ      31.2812
    Hexadecapole Moments (Debye-Ang^3)
      XXXX    -919.7549   XXXY     -20.9498   XXYY    -237.6589
      XYYY      17.9294   YYYY    -584.1635   XXXZ      91.1732
      XXYZ      -8.7810   XYYZ       4.7041   YYYZ     -34.9877
      XXZZ    -238.9134   XYZZ     -12.6083   YYZZ    -166.1828
      XZZZ      26.2524   YZZZ     -46.1727   ZZZZ    -509.8257
 -----------------------------------------------------------------
 Calculating analytic gradient of the SCF energy
 CPU 0.00 s  wall 0.00 s
 CPU 10.38 s  wall 11.83 s
 Gradient of SCF Energy
            1           2           3           4           5           6
    1  -0.0000634  -0.0000064  -0.0000023   0.0001848   0.0000349  -0.0000373
    2  -0.0000390  -0.0000073  -0.0000058  -0.0001297   0.0000338   0.0000510
    3  -0.0000923   0.0000264   0.0000129  -0.0000018   0.0000242  -0.0000164
            7           8           9          10          11          12
    1  -0.0001488   0.0000434   0.0000057   0.0000060   0.0000005   0.0000131
    2   0.0001630  -0.0000055  -0.0000418  -0.0000072   0.0000030  -0.0000030
    3  -0.0000140   0.0000225   0.0000465   0.0000181  -0.0000092  -0.0000099
           13          14          15
    1  -0.0000087  -0.0000075  -0.0000140
    2   0.0000105  -0.0000177  -0.0000042
    3  -0.0000130   0.0000022   0.0000040
 Max gradient component =       1.848E-04
 RMS gradient           =       5.380E-05
 Gradient time:  CPU 94.35 s  wall 108.45 s
the nuclear gradient is: 
-0.0001198 -0.0000738 -0.0001745
-0.0000121 -0.0000138 0.0000498
-0.0000043 -0.0000110 0.0000244
0.0003492 -0.0002451 -0.0000033
0.0000660 0.0000639 0.0000457
-0.0000704 0.0000963 -0.0000311
-0.0002812 0.0003080 -0.0000265
0.0000819 -0.0000104 0.0000424
0.0000107 -0.0000789 0.0000878
0.0000114 -0.0000136 0.0000342
0.0000009 0.0000057 -0.0000173
0.0000248 -0.0000057 -0.0000187
-0.0000164 0.0000199 -0.0000246
-0.0000142 -0.0000335 0.0000042
-0.0000265 -0.0000079 0.0000075
-Performing force calculation on product structure in state0
 ----------------------------------------------------------------
             Standard Nuclear Orientation (Angstroms)
    I     Atom           X                Y                Z
 ----------------------------------------------------------------
    1      C       1.9303861238    -0.3940426779     0.6485884231
    2      O       2.3710923256     0.7926772180     0.6808010413
    3      O       2.5449151717    -1.4453625194     0.3138858740
    4      C       0.4512139281    -0.5750602132     1.0990753626
    5      C      -0.2229120431    -0.5138494401    -1.3741208617
    6      O       0.2335792051    -0.8912881977     2.2671249493
    7      C      -0.7549537561    -0.3003983116     0.0871264743
    8      O      -1.8595545393    -1.0208858040     0.3305255728
    9      C      -1.0156341745     1.2527839453     0.2540810714
   10      H      -1.8128877965     1.5277072525    -0.4554897601
   11      H      -0.1241917427     1.8734166804     0.0783146371
   12      H      -1.3852116000     1.4305545504     1.2725889083
   13      H      -0.0057958013    -1.5783272948    -1.5276076820
   14      H       0.6817275385     0.0660055759    -1.6124600886
   15      H      -1.0317728392    -0.2239307635    -2.0624339217
 ----------------------------------------------------------------
 Nuclear Repulsion Energy =   446.9180042922 hartrees
 There are       35 alpha and       35 beta electrons

                       Distance Matrix (Angstroms)
             C (  1)   O (  2)   O (  3)   C (  4)   C (  5)   O (  6)
   O (  2)  1.266319
   O (  3)  1.262911  2.274569
   C (  4)  1.556810  2.394074  2.399486
   C (  5)  2.956755  3.557889  3.373122  2.564155
   O (  6)  2.397096  3.149782  3.076429  1.229514  3.689108
   C (  7)  2.745006  3.364436  3.500214  1.598224  1.569673  2.465510
   O (  8)  3.854575  4.616284  4.424908  2.475698  2.416920  2.854544
   C (  9)  3.398045  3.444373  4.467783  2.491320  2.529910  3.195297
   H ( 10)  4.350197  4.397399  5.331185  3.458968  2.745881  4.177583
   H ( 11)  3.112535  2.785216  4.265433  2.714421  2.796132  3.544359
   H ( 12)  3.835586  3.855764  4.963457  2.724896  3.483780  3.000090
   H ( 13)  3.144385  4.018498  3.148794  2.848660  1.097183  3.863848
   H ( 14)  2.623573  2.939567  3.076769  2.795805  1.100641  4.020998
   H ( 15)  4.019075  4.487574  4.464470  3.509656  1.100947  4.559777
             C (  7)   O (  8)   C (  9)   H ( 10)   H ( 11)   H ( 12)
   O (  8)  1.341077
   C (  9)  1.583731  2.426442
   H ( 10)  2.180740  2.667457  1.102128
   H ( 11)  2.263495  3.384092  1.100340  1.804482
   H ( 12)  2.190604  2.668716  1.097975  1.782863  1.792370
   H ( 13)  2.191280  2.683248  3.494192  3.749996  3.808877  4.335581
   H ( 14)  2.255416  3.378556  2.788092  3.114203  2.602875  3.802333
   H ( 15)  2.168660  2.654546  2.747215  2.502128  3.131353  3.739601
             H ( 13)   H ( 14)
   H ( 14)  1.784298
   H ( 15)  1.781308  1.795167
 
 Requested basis set is 6-31+G(d)
 There are 57 shells and 183 basis functions
 A cutoff of  1.0D-11 yielded   1544 shell pairs
 There are     16541 function pairs
 Smallest overlap matrix eigenvalue = 2.45E-05
 Placing solute cavity origin at the center of mass
 Center of Onsager solute cavity (Angst): (   0.412024,  -0.340483,   0.474482)
 Solvent multipole matrices computed through 15th order

 Scale SEOQF with 1.000000e-01/1.000000e-01/1.000000e-01

 Standard Electronic Orientation quadrupole field applied
 Guess from superposition of atomic densities
 Warning:  Energy on first SCF cycle will be non-variational
 A restricted hybrid HF-DFT SCF calculation will be
 performed using Pulay DIIS extrapolation
 Kirkwood-Onsager solvation model will be applied
 Exchange:     0.2000 Hartree-Fock + 0.0800 Slater + 0.7200 B88
 Correlation:  0.1900 VWN1RPA + 0.8100 LYP
 Using SG-1 standard quadrature grid
 SCF converges when DIIS error is below 1.0E-08
 Kirkwood-Onsager SCRF: 
 Maximum multipole order     = 15
 Solvent dielectric constant = 78.3900
 Cavity radius               = 56.6917 bohr
 Born term (E_born)          = -0.03482849 a.u. = -21.8552 kcal/mol
 CPU 0.00 s  wall 0.00 s
 Inaccurate integrated density:
   Number of electrons =    70
   Numerical integral  =    67.999790909510
   Relative error      =    -2.8574415578 %
 CPU 5.94 s  wall 7.69 s
 ---------------------------------------
  Cycle       Energy         DIIS Error
 ---------------------------------------
    1    -496.1882090535      4.84E-02
 CPU 0.00 s  wall 0.00 s
 CPU 6.68 s  wall 8.36 s
    2    -494.6240913060      1.07E-02
 CPU 0.00 s  wall 0.00 s
 CPU 6.64 s  wall 7.34 s
    3    -489.7299448876      2.73E-02
 CPU 0.00 s  wall 0.00 s
 CPU 6.69 s  wall 9.00 s
    4    -494.6596393368      1.01E-02
 CPU 0.00 s  wall 0.00 s
 CPU 6.63 s  wall 8.18 s
    5    -494.9969943763      3.43E-03
 CPU 0.00 s  wall 0.00 s
 CPU 6.56 s  wall 7.62 s
    6    -495.0427844333      1.67E-03
 CPU 0.00 s  wall 0.00 s
 CPU 6.56 s  wall 7.43 s
    7    -495.0513957984      7.43E-04
 CPU 0.00 s  wall 0.00 s
 CPU 6.49 s  wall 6.83 s
    8    -495.0526133331      4.39E-04
 CPU 0.00 s  wall 0.00 s
 CPU 6.48 s  wall 7.10 s
    9    -495.0532669792      5.50E-05
 CPU 0.00 s  wall 0.00 s
 CPU 6.36 s  wall 6.60 s
   10    -495.0532739352      3.02E-05
 CPU 0.00 s  wall 0.00 s
 CPU 6.27 s  wall 7.21 s
   11    -495.0532770264      9.14E-06
 CPU 0.00 s  wall 0.00 s
 CPU 6.15 s  wall 6.54 s
   12    -495.0532772830      4.92E-06
 CPU 0.00 s  wall 0.00 s
 CPU 6.11 s  wall 6.60 s
   13    -495.0532773631      1.48E-06
 CPU 0.00 s  wall 0.00 s
 CPU 6.04 s  wall 6.88 s
   14    -495.0532773712      4.63E-07
 CPU 0.00 s  wall 0.00 s
 CPU 6.01 s  wall 7.86 s
   15    -495.0532773722      9.37E-08
 CPU 0.00 s  wall 0.00 s
 CPU 5.83 s  wall 7.16 s
   16    -495.0532773714      3.02E-08
 CPU 0.00 s  wall 0.00 s
 CPU 5.41 s  wall 6.97 s
   17    -495.0532773712      1.18E-08
 CPU 0.00 s  wall 0.00 s
 CPU 5.03 s  wall 5.28 s
   18    -495.0532773712      3.08E-09 Convergence criterion met
 ---------------------------------------
 SCF time:  CPU 283.25 s  wall 344.94 s
 SCF   energy in the final basis set = -495.0532773712
 Total energy in the final basis set = -495.0532773712
 
 --------------------------------------------------------------
 
                    Orbital Energies (a.u.)
 --------------------------------------------------------------
 
 Alpha MOs
 -- Occupied --
-18.842 -18.806 -18.805 -18.742  -9.976  -9.960  -9.932  -9.892
 -9.888  -0.740  -0.714  -0.640  -0.616  -0.449  -0.396  -0.336
 -0.249  -0.176  -0.155  -0.144  -0.133  -0.125  -0.114  -0.107
 -0.089  -0.072  -0.066  -0.046  -0.033   0.008   0.042   0.057
  0.073   0.113   0.122
 -- Virtual --
  0.232   0.240   0.268   0.282   0.285   0.290   0.299   0.304
  0.305   0.311   0.329   0.342   0.344   0.348   0.353   0.361
  0.372   0.387   0.401   0.407   0.429   0.467   0.475   0.484
  0.492   0.502   0.523   0.525   0.530   0.540   0.546   0.555
  0.561   0.571   0.576   0.588   0.594   0.599   0.603   0.612
  0.616   0.631   0.647   0.656   0.663   0.680   0.693   0.720
  0.743   0.784   0.808   0.824   0.931   0.952   0.980   0.999
  1.026   1.055   1.087   1.093   1.102   1.120   1.148   1.164
  1.173   1.218   1.250   1.274   1.288   1.300   1.329   1.382
  1.391   1.440   1.463   1.510   1.525   1.555   1.600   1.605
  1.629   1.635   1.650   1.655   1.672   1.694   1.715   1.736
  1.754   1.781   1.797   1.845   1.885   1.901   1.928   1.949
  1.976   2.007   2.048   2.072   2.123   2.136   2.150   2.157
  2.185   2.215   2.218   2.245   2.251   2.288   2.306   2.321
  2.362   2.380   2.407   2.469   2.481   2.500   2.554   2.560
  2.579   2.589   2.641   2.716   2.732   2.800   2.827   2.890
  2.964   3.017   3.046   3.107   3.162   3.211   3.344   3.385
  3.426   3.461   3.525   4.470   4.552   4.619   4.651   4.671
  4.757   4.783   4.908   5.060
 --------------------------------------------------------------
 
          Ground-State Mulliken Net Atomic Charges

     Atom                 Charge (a.u.)
  ----------------------------------------
      1 C                     0.187119
      2 O                    -0.589645
      3 O                    -0.595690
      4 C                     0.391257
      5 C                    -0.625054
      6 O                    -0.469160
      7 C                    -0.127295
      8 O                    -0.663879
      9 C                    -0.611217
     10 H                     0.159939
     11 H                     0.202751
     12 H                     0.191832
     13 H                     0.201565
     14 H                     0.187806
     15 H                     0.159671
  ----------------------------------------
  Sum of atomic charges =    -2.000000

 -----------------------------------------------------------------
                    Cartesian Multipole Moments
 -----------------------------------------------------------------
    Charge (ESU x 10^10)
                -9.6064
    Dipole Moment (Debye)
         X       0.0942      Y       2.1918      Z      -1.2905
       Tot       2.5452
    Quadrupole Moments (Debye-Ang)
        XX    -109.0126     XY      -4.2355     YY     -75.7221
        XZ      -1.0168     YZ       0.7130     ZZ     -72.5090
    Octopole Moments (Debye-Ang^2)
       XXX      22.9352    XXY       8.1994    XYY       1.3788
       YYY     -22.4671    XXZ      13.5400    XYZ      -3.4427
       YYZ       7.1958    XZZ      12.2637    YZZ       1.7331
       ZZZ      18.6578
    Hexadecapole Moments (Debye-Ang^3)
      XXXX   -1213.3198   XXXY      14.3755   XXYY    -286.0009
      XYYY      50.3122   YYYY    -438.4389   XXXZ     -61.7233
      XXYZ      -4.6850   XYYZ     -23.6811   YYYZ      12.1508
      XXZZ    -236.0095   XYZZ       8.5613   YYZZ    -144.1908
      XZZZ     -61.4713   YZZZ      18.0340   ZZZZ    -517.0924
 -----------------------------------------------------------------
 Calculating analytic gradient of the SCF energy
 CPU 0.00 s  wall 0.00 s
 CPU 10.35 s  wall 11.71 s
 Gradient of SCF Energy
            1           2           3           4           5           6
    1  -0.0001708  -0.0000057   0.0001581  -0.0000860   0.0001961   0.0000878
    2   0.0000931  -0.0000386  -0.0000049  -0.0001052   0.0000957   0.0000183
    3   0.0000384   0.0000218  -0.0000035  -0.0000556  -0.0001078  -0.0000934
            7           8           9          10          11          12
    1   0.0000141  -0.0000154  -0.0001024   0.0000095   0.0000051   0.0000590
    2   0.0001260  -0.0001134   0.0001244  -0.0000167  -0.0001196  -0.0000460
    3   0.0001378   0.0001402   0.0000283   0.0000568  -0.0002580   0.0000346
           13          14          15
    1  -0.0000685  -0.0000855   0.0000045
    2  -0.0000355   0.0000723  -0.0000499
    3  -0.0001408   0.0001936   0.0000075
 Max gradient component =       2.580E-04
 RMS gradient           =       9.753E-05
 Gradient time:  CPU 92.54 s  wall 105.22 s
the nuclear gradient is: 
-0.0003227 0.0001759 0.0000725
-0.0000107 -0.0000729 0.0000413
0.0002987 -0.0000092 -0.0000066
-0.0001625 -0.0001987 -0.0001051
0.0003706 0.0001809 -0.0002038
0.0001660 0.0000346 -0.0001766
0.0000266 0.0002380 0.0002604
-0.0000290 -0.0002143 0.0002650
-0.0001935 0.0002351 0.0000535
0.0000180 -0.0000316 0.0001074
0.0000097 -0.0002260 -0.0004875
0.0001115 -0.0000869 0.0000654
-0.0001294 -0.0000671 -0.0002660
-0.0001616 0.0001366 0.0003659
0.0000084 -0.0000943 0.0000142

STARTING ITERATION 1
The distance between the innermost nodes (Angstroms): 5.271
-Adding two new nodes
The distance between the previous and current R_nodes (Angstroms): 0.4524
The distance between the previous and current P_nodes (Angstroms): 0.4548
-Optimizing new reactant side node
Using BFGS, step: 2 E_tol 0.0168
max_steps 3 node_spacing 0.4392 sigma 0.7000
Calling calcGrad
coords address 0x1b68b1e0 grads address 0x1b68b4e0
 ----------------------------------------------------------------
             Standard Nuclear Orientation (Angstroms)
    I     Atom           X                Y                Z
 ----------------------------------------------------------------
    1      C       1.7008836805     0.0331744181     0.4959214749
    2      O       2.6040461435     0.1462153980    -0.3765698699
    3      O       1.7745346072     0.5543469190     1.6470230136
    4      C       0.4275707699    -0.9012052742     0.2899117718
    5      C       0.0296816402    -0.8187555701    -1.3676760959
    6      O       0.5774080973    -2.1103398655     0.7959307475
    7      C      -0.8594589566    -0.1540210724     0.7345916853
    8      O      -1.7484148851    -0.7072657433     1.4061578702
    9      C      -1.0512986767     1.3424976583     0.4336690320
   10      H      -0.3340970137     1.7921135264    -0.2558934278
   11      H      -1.0090094320     1.9180652776     1.3661343136
   12      H      -2.0598724659     1.4596127147     0.0075936045
   13      H      -0.7525213721    -1.5723884984    -1.5397675162
   14      H       0.9569222610    -1.1468023178    -1.8507493283
   15      H      -0.2700613304     0.1279191912    -1.8492669561
 ----------------------------------------------------------------
 Nuclear Repulsion Energy =   450.3477382384 hartrees
 There are       35 alpha and       35 beta electrons

                       Distance Matrix (Angstroms)
             C (  1)   O (  2)   O (  3)   C (  4)   C (  5)   O (  6)
   O (  2)  1.260842
   O (  3)  1.265733  2.224767
   C (  4)  1.592743  2.505660  2.403059
   C (  5)  2.644182  2.922467  3.744106  1.706667
   O (  6)  2.438618  3.251778  3.042700  1.319285  2.578641
   C (  7)  2.578247  3.649752  2.876150  1.553213  2.377388  2.428072
   O (  8)  3.643411  4.780216  3.749781  2.453270  3.296697  2.783962
   C (  9)  3.048395  3.930537  3.174704  2.691082  3.014030  3.834841
   H ( 10)  2.792891  3.369900  3.098303  2.851667  2.860950  4.143226
   H ( 11)  3.413738  4.385275  3.112353  3.342200  4.005345  4.366910
   H ( 12)  4.051725  4.860528  4.267307  3.441008  3.383573  4.507914
   H ( 13)  3.569462  3.946286  4.589624  2.278339  1.099736  2.741093
   H ( 14)  2.729961  2.560882  3.974520  2.218775  1.095787  2.842068
   H ( 15)  3.064883  3.229499  4.072623  2.474242  1.103616  3.567223
             C (  7)   O (  8)   C (  9)   H ( 10)   H ( 11)   H ( 12)
   O (  8)  1.243915
   C (  9)  1.538481  2.373444
   H ( 10)  2.245998  3.318073  1.091801
   H ( 11)  2.171348  2.727762  1.096612  1.761347
   H ( 12)  2.138535  2.597759  1.101125  1.777156  1.777674
   H ( 13)  2.682520  3.227804  3.532744  3.625367  4.548991  3.646440
   H ( 14)  3.311924  4.256699  3.930411  3.584344  4.858667  4.398623
   H ( 15)  2.665184  3.671628  2.701357  2.304882  3.753595  2.902544
             H ( 13)   H ( 14)
   H ( 14)  1.788863
   H ( 15)  1.794325  1.769295
 
 Requested basis set is 6-31+G(d)
 There are 57 shells and 183 basis functions
 A cutoff of  1.0D-11 yielded   1556 shell pairs
 There are     16750 function pairs
 Smallest overlap matrix eigenvalue = 2.50E-05
 Placing solute cavity origin at the center of mass
 Center of Onsager solute cavity (Angst): (   0.390517,  -0.286425,   0.449337)
 Solvent multipole matrices computed through 15th order

 Scale SEOQF with 1.000000e-01/1.000000e-01/1.000000e-01

 Standard Electronic Orientation quadrupole field applied
 Guess from superposition of atomic densities
 Warning:  Energy on first SCF cycle will be non-variational
 A restricted hybrid HF-DFT SCF calculation will be
 performed using Pulay DIIS extrapolation
 Kirkwood-Onsager solvation model will be applied
 Exchange:     0.2000 Hartree-Fock + 0.0800 Slater + 0.7200 B88
 Correlation:  0.1900 VWN1RPA + 0.8100 LYP
 Using SG-1 standard quadrature grid
 SCF converges when DIIS error is below 1.0E-08
 Kirkwood-Onsager SCRF: 
 Maximum multipole order     = 15
 Solvent dielectric constant = 78.3900
 Cavity radius               = 56.6917 bohr
 Born term (E_born)          = -0.03482849 a.u. = -21.8552 kcal/mol
 CPU 0.00 s  wall 0.00 s
 Inaccurate integrated density:
   Number of electrons =    70
   Numerical integral  =    68.000606097613
   Relative error      =    -2.8562770034 %
 CPU 5.92 s  wall 7.23 s
 ---------------------------------------
  Cycle       Energy         DIIS Error
 ---------------------------------------
    1    -496.1502135587      4.81E-02
 CPU 0.00 s  wall 0.00 s
 CPU 6.80 s  wall 8.74 s
    2    -494.5941087834      1.07E-02
 CPU 0.00 s  wall 0.00 s
 CPU 6.73 s  wall 8.19 s
    3    -487.9228642466      3.13E-02
 CPU 0.00 s  wall 0.00 s
 CPU 6.76 s  wall 8.22 s
    4    -494.6898266393      8.94E-03
 CPU 0.00 s  wall 0.00 s
 CPU 6.73 s  wall 7.60 s
    5    -495.0010370699      2.04E-03
 CPU 0.00 s  wall 0.00 s
 CPU 6.68 s  wall 6.92 s
    6    -495.0100199909      2.14E-03
 CPU 0.00 s  wall 0.00 s
 CPU 6.66 s  wall 7.32 s
    7    -495.0248603701      6.18E-04
 CPU 0.00 s  wall 0.00 s
 CPU 6.58 s  wall 8.25 s
    8    -495.0256578223      3.61E-04
 CPU 0.00 s  wall 0.00 s
 CPU 6.59 s  wall 6.66 s
    9    -495.0261120951      7.37E-05
 CPU 0.00 s  wall 0.00 s
 CPU 6.48 s  wall 7.53 s
   10    -495.0261283547      3.19E-05
 CPU 0.00 s  wall 0.00 s
 CPU 6.51 s  wall 7.40 s
   11    -495.0261313914      1.38E-05
 CPU 0.00 s  wall 0.00 s
 CPU 6.27 s  wall 6.84 s
   12    -495.0261320224      3.54E-06
 CPU 0.00 s  wall 0.00 s
 CPU 6.16 s  wall 7.08 s
   13    -495.0261320786      9.19E-07
 CPU 0.00 s  wall 0.00 s
 CPU 6.04 s  wall 6.79 s
   14    -495.0261320819      2.37E-07
 CPU 0.00 s  wall 0.00 s
 CPU 5.96 s  wall 6.73 s
   15    -495.0261320813      7.44E-08
 CPU 0.00 s  wall 0.00 s
 CPU 5.72 s  wall 6.69 s
   16    -495.0261320814      2.05E-08
 CPU 0.00 s  wall 0.00 s
 CPU 5.19 s  wall 5.96 s
   17    -495.0261320821      9.26E-09 Convergence criterion met
 ---------------------------------------
 SCF time:  CPU 275.01 s  wall 330.10 s
 SCF   energy in the final basis set = -495.0261320821
 Total energy in the final basis set = -495.0261320821
 
 --------------------------------------------------------------
 
                    Orbital Energies (a.u.)
 --------------------------------------------------------------
 
 Alpha MOs
 -- Occupied --
-18.849 -18.777 -18.770 -18.744  -9.976  -9.947  -9.926  -9.924
 -9.887  -0.733  -0.699  -0.614  -0.605  -0.470  -0.410  -0.324
 -0.236  -0.187  -0.167  -0.152  -0.136  -0.123  -0.111  -0.091
 -0.081  -0.067  -0.062  -0.047  -0.028   0.038   0.055   0.072
  0.095   0.118   0.129
 -- Virtual --
  0.216   0.237   0.259   0.265   0.279   0.293   0.302   0.304
  0.307   0.317   0.331   0.339   0.346   0.351   0.358   0.371
  0.383   0.388   0.392   0.410   0.414   0.459   0.477   0.484
  0.491   0.507   0.517   0.528   0.536   0.539   0.554   0.567
  0.570   0.573   0.585   0.595   0.603   0.610   0.616   0.628
  0.631   0.647   0.652   0.663   0.669   0.674   0.679   0.725
  0.753   0.798   0.817   0.855   0.923   0.959   0.971   1.004
  1.029   1.044   1.073   1.083   1.118   1.143   1.161   1.174
  1.190   1.237   1.248   1.276   1.297   1.330   1.380   1.381
  1.414   1.427   1.447   1.497   1.548   1.570   1.585   1.612
  1.634   1.641   1.655   1.671   1.684   1.692   1.705   1.740
  1.753   1.769   1.791   1.833   1.890   1.914   1.938   1.951
  1.972   2.039   2.047   2.055   2.078   2.097   2.144   2.168
  2.189   2.206   2.245   2.256   2.275   2.302   2.322   2.343
  2.375   2.395   2.419   2.453   2.480   2.515   2.542   2.577
  2.619   2.627   2.667   2.713   2.751   2.780   2.840   2.906
  2.943   2.998   3.003   3.086   3.187   3.289   3.362   3.402
  3.471   3.496   3.571   4.456   4.536   4.571   4.642   4.725
  4.784   4.873   4.966   5.095
 --------------------------------------------------------------
 
          Ground-State Mulliken Net Atomic Charges

     Atom                 Charge (a.u.)
  ----------------------------------------
      1 C                     0.310207
      2 O                    -0.629033
      3 O                    -0.592959
      4 C                    -0.075828
      5 C                    -0.635298
      6 O                    -0.641026
      7 C                     0.300676
      8 O                    -0.481065
      9 C                    -0.706641
     10 H                     0.217505
     11 H                     0.210872
     12 H                     0.169648
     13 H                     0.177666
     14 H                     0.223931
     15 H                     0.151346
  ----------------------------------------
  Sum of atomic charges =    -2.000000

 -----------------------------------------------------------------
                    Cartesian Multipole Moments
 -----------------------------------------------------------------
    Charge (ESU x 10^10)
                -9.6064
    Dipole Moment (Debye)
         X      -4.7185      Y       3.4943      Z      -2.0061
       Tot       6.2047
    Quadrupole Moments (Debye-Ang)
        XX     -94.2019     XY      -7.2385     YY     -79.6430
        XZ       3.9629     YZ       0.0840     ZZ     -77.7306
    Octopole Moments (Debye-Ang^2)
       XXX      -4.8142    XXY     -16.1811    XYY       1.7349
       YYY      12.8723    XXZ       2.1303    XYZ      -4.7653
       YYZ       1.8207    XZZ       0.0909    YZZ      -1.0104
       ZZZ      36.4867
    Hexadecapole Moments (Debye-Ang^3)
      XXXX    -967.4549   XXXY     -29.4262   XXYY    -238.5020
      XYYY      14.5356   YYYY    -550.4773   XXXZ      72.9083
      XXYZ      -4.2850   XYYZ       0.6307   YYYZ     -18.6315
      XXZZ    -246.0721   XYZZ     -14.1268   YYZZ    -164.1009
      XZZZ       5.8272   YZZZ     -39.0263   ZZZZ    -528.9328
 -----------------------------------------------------------------
 Calculating analytic gradient of the SCF energy
 CPU 0.00 s  wall 0.00 s
 CPU 10.36 s  wall 12.12 s
 Gradient of SCF Energy
            1           2           3           4           5           6
    1  -0.0077171   0.0020347   0.0060878   0.0137668  -0.0102787   0.0004774
    2  -0.0032465   0.0052418  -0.0065329  -0.0128034   0.0204749  -0.0027384
    3  -0.0147087   0.0167040  -0.0093073   0.0145453  -0.0019168   0.0159555
            7           8           9          10          11          12
    1  -0.0013024  -0.0050851   0.0058491  -0.0042823  -0.0002636   0.0013535
    2   0.0078258  -0.0099300  -0.0021354   0.0035259   0.0034072  -0.0018044
    3  -0.0326234   0.0141819   0.0055385   0.0004252  -0.0020263  -0.0001930
           13          14          15
    1   0.0012069  -0.0008722  -0.0009749
    2   0.0005723   0.0007419  -0.0025988
    3  -0.0003842   0.0013113  -0.0075022
 Max gradient component =       3.262E-02
 RMS gradient           =       9.144E-03
 Gradient time:  CPU 94.96 s  wall 105.38 s
the nuclear gradient is: 
-0.0145832 -0.0061350 -0.0277952
0.0038450 0.0099055 0.0315659
0.0115042 -0.0123453 -0.0175882
0.0260154 -0.0241947 0.0274866
-0.0194238 0.0386918 -0.0036222
0.0009022 -0.0051748 0.0301514
-0.0024611 0.0147886 -0.0616489
-0.0096094 -0.0187649 0.0267997
0.0110532 -0.0040352 0.0104662
-0.0080924 0.0066629 0.0008035
-0.0004980 0.0064386 -0.0038290
0.0025577 -0.0034098 -0.0003648
0.0022807 0.0010815 -0.0007259
-0.0016482 0.0014020 0.0024780
-0.0018424 -0.0049111 -0.0141770
calcGrad Returned
Calling opt_gen...
Calculate magnitude of step
Normalize
Gradient flag: 0.3209723
Calling calcGrad
coords address 0x1b68bae0 grads address 0x1b68bde0
 ----------------------------------------------------------------
             Standard Nuclear Orientation (Angstroms)
    I     Atom           X                Y                Z
 ----------------------------------------------------------------
    1      C       1.7128359118     0.0357736805     0.5160122138
    2      O       2.6026676824     0.1428711914    -0.3965510433
    3      O       1.7735707889     0.5543479192     1.6626130772
    4      C       0.4120380822    -0.8852287635     0.2764957177
    5      C       0.0403742452    -0.8425556814    -1.3654397865
    6      O       0.5772434776    -2.1043629439     0.7859858774
    7      C      -0.8587805471    -0.1649240874     0.7705885074
    8      O      -1.7449633317    -0.6969334212     1.3797109242
    9      C      -1.0582575045     1.3450077446     0.4247785550
   10      H      -0.3342415624     1.7890677838    -0.2635040232
   11      H      -1.0009266742     1.9134052213     1.3666288066
   12      H      -2.0640491630     1.4629976388     0.0136684882
   13      H      -0.7518209727    -1.5756793597    -1.5386514856
   14      H       0.9573643515    -1.1409087544    -1.8522618234
   15      H      -0.2767337112     0.1302913391    -1.8430670311
 ----------------------------------------------------------------
 Nuclear Repulsion Energy =   450.4888054817 hartrees
 There are       35 alpha and       35 beta electrons

                       Distance Matrix (Angstroms)
             C (  1)   O (  2)   O (  3)   C (  4)   C (  5)   O (  6)
   O (  2)  1.279079
   O (  3)  1.259882  2.257625
   C (  4)  1.611735  2.511740  2.418155
   C (  5)  2.666168  2.911213  3.758246  1.684015
   O (  6)  2.437753  3.248199  3.044408  1.331601  2.551278
   C (  7)  2.591968  3.665866  2.870946  1.542059  2.414597  2.413260
   O (  8)  3.638573  4.770982  3.745106  2.430060  3.277879  2.779570
   C (  9)  3.066166  3.939808  3.190083  2.675390  3.032706  3.834513
   H ( 10)  2.805746  3.369436  3.110841  2.828497  2.877506  4.134131
   H ( 11)  3.407867  4.385144  3.103624  3.319219  4.017938  4.355483
   H ( 12)  4.068683  4.867161  4.274575  3.422609  3.412640  4.505437
   H ( 13)  3.590676  3.938325  4.600295  2.264078  1.093182  2.729443
   H ( 14)  2.750280  2.544446  3.986782  2.212320  1.080223  2.834270
   H ( 15)  3.087487  3.222347  4.083303  2.449129  1.129211  3.554557
             C (  7)   O (  8)   C (  9)   H ( 10)   H ( 11)   H ( 12)
   O (  8)  1.199743
   C (  9)  1.561816  2.356477
   H ( 10)  2.272130  3.297043  1.093216
   H ( 11)  2.166777  2.714338  1.101565  1.765577
   H ( 12)  2.162344  2.575498  1.092955  1.781960  1.778651
   H ( 13)  2.708184  3.205521  3.532616  3.622416  4.547133  3.655844
   H ( 14)  3.336206  4.236194  3.927776  3.574515  4.850257  4.403517
   H ( 15)  2.693905  3.636798  2.688762  2.291259  3.742472  2.901391
             H ( 13)   H ( 14)
   H ( 14)  1.791282
   H ( 15)  1.796862  1.771731
 
 Requested basis set is 6-31+G(d)
 There are 57 shells and 183 basis functions
 A cutoff of  1.0D-11 yielded   1556 shell pairs
 There are     16760 function pairs
 Smallest overlap matrix eigenvalue = 2.71E-05
 Placing solute cavity origin at the center of mass
 Center of Onsager solute cavity (Angst): (   0.390696,  -0.286082,   0.447681)
 Solvent multipole matrices computed through 15th order

 Scale SEOQF with 1.000000e-01/1.000000e-01/1.000000e-01

 Standard Electronic Orientation quadrupole field applied
 Guess from superposition of atomic densities
 Warning:  Energy on first SCF cycle will be non-variational
 A restricted hybrid HF-DFT SCF calculation will be
 performed using Pulay DIIS extrapolation
 Kirkwood-Onsager solvation model will be applied
 Exchange:     0.2000 Hartree-Fock + 0.0800 Slater + 0.7200 B88
 Correlation:  0.1900 VWN1RPA + 0.8100 LYP
 Using SG-1 standard quadrature grid
 SCF converges when DIIS error is below 1.0E-08
 Kirkwood-Onsager SCRF: 
 Maximum multipole order     = 15
 Solvent dielectric constant = 78.3900
 Cavity radius               = 56.6917 bohr
 Born term (E_born)          = -0.03482849 a.u. = -21.8552 kcal/mol
 CPU 0.00 s  wall 0.00 s
 Inaccurate integrated density:
   Number of electrons =    70
   Numerical integral  =    68.000300262980
   Relative error      =    -2.8567139100 %
 CPU 6.02 s  wall 8.22 s
 ---------------------------------------
  Cycle       Energy         DIIS Error
 ---------------------------------------
    1    -496.1733191447      4.85E-02
 CPU 0.00 s  wall 0.00 s
 CPU 6.75 s  wall 7.41 s
    2    -494.5989284666      1.06E-02
 CPU 0.00 s  wall 0.00 s
 CPU 6.74 s  wall 8.15 s
    3    -488.7733342375      2.98E-02
 CPU 0.00 s  wall 0.00 s
 CPU 6.69 s  wall 7.14 s
    4    -494.6849224639      9.20E-03
 CPU 0.00 s  wall 0.00 s
 CPU 6.71 s  wall 7.48 s
    5    -495.0056844719      1.87E-03
 CPU 0.00 s  wall 0.00 s
 CPU 6.65 s  wall 7.35 s
    6    -495.0182967996      1.70E-03
 CPU 0.00 s  wall 0.00 s
 CPU 6.63 s  wall 7.78 s
    7    -495.0272205353      6.36E-04
 CPU 0.00 s  wall 0.00 s
 CPU 6.52 s  wall 7.74 s
    8    -495.0281839519      3.37E-04
 CPU 0.00 s  wall 0.00 s
 CPU 6.55 s  wall 8.15 s
    9    -495.0285811980      6.76E-05
 CPU 0.00 s  wall 0.00 s
 CPU 6.45 s  wall 7.97 s
   10    -495.0285945282      3.02E-05
 CPU 0.00 s  wall 0.00 s
 CPU 6.41 s  wall 8.00 s
   11    -495.0285973720      1.14E-05
 CPU 0.00 s  wall 0.00 s
 CPU 6.32 s  wall 8.42 s
   12    -495.0285978257      3.23E-06
 CPU 0.00 s  wall 0.00 s
 CPU 6.22 s  wall 8.12 s
   13    -495.0285978699      7.29E-07
 CPU 0.00 s  wall 0.00 s
 CPU 6.01 s  wall 6.46 s
   14    -495.0285978724      1.64E-07
 CPU 0.00 s  wall 0.00 s
 CPU 5.91 s  wall 7.12 s
   15    -495.0285978721      6.92E-08
 CPU 0.00 s  wall 0.00 s
 CPU 5.63 s  wall 6.39 s
   16    -495.0285978719      1.62E-08
 CPU 0.00 s  wall 0.00 s
 CPU 5.30 s  wall 6.18 s
   17    -495.0285978706      8.43E-09 Convergence criterion met
 ---------------------------------------
 SCF time:  CPU 275.94 s  wall 340.71 s
 SCF   energy in the final basis set = -495.0285978706
 Total energy in the final basis set = -495.0285978706
 
 --------------------------------------------------------------
 
                    Orbital Energies (a.u.)
 --------------------------------------------------------------
 
 Alpha MOs
 -- Occupied --
-18.854 -18.776 -18.775 -18.738  -9.975  -9.948  -9.921  -9.921
 -9.887  -0.761  -0.695  -0.607  -0.605  -0.465  -0.409  -0.323
 -0.232  -0.190  -0.168  -0.150  -0.143  -0.126  -0.110  -0.090
 -0.084  -0.074  -0.060  -0.052  -0.028   0.036   0.058   0.071
  0.091   0.121   0.135
 -- Virtual --
  0.217   0.237   0.259   0.268   0.279   0.295   0.302   0.306
  0.307   0.317   0.329   0.338   0.344   0.352   0.358   0.372
  0.384   0.388   0.392   0.410   0.414   0.462   0.480   0.482
  0.493   0.509   0.517   0.525   0.540   0.542   0.553   0.565
  0.568   0.574   0.584   0.595   0.600   0.609   0.617   0.628
  0.629   0.649   0.655   0.657   0.669   0.673   0.683   0.724
  0.755   0.794   0.815   0.867   0.922   0.959   0.969   0.999
  1.029   1.049   1.074   1.081   1.126   1.153   1.157   1.177
  1.185   1.239   1.252   1.281   1.291   1.333   1.380   1.390
  1.412   1.435   1.448   1.490   1.543   1.569   1.584   1.614
  1.621   1.641   1.652   1.673   1.680   1.692   1.704   1.741
  1.755   1.774   1.789   1.829   1.893   1.918   1.940   1.961
  1.979   2.035   2.042   2.054   2.072   2.093   2.146   2.167
  2.185   2.204   2.233   2.249   2.289   2.304   2.313   2.334
  2.383   2.397   2.426   2.450   2.483   2.518   2.544   2.580
  2.625   2.633   2.668   2.711   2.747   2.786   2.844   2.916
  2.971   2.999   3.017   3.080   3.184   3.301   3.363   3.415
  3.459   3.514   3.578   4.452   4.540   4.579   4.643   4.726
  4.782   4.866   4.973   5.098
 --------------------------------------------------------------
 
          Ground-State Mulliken Net Atomic Charges

     Atom                 Charge (a.u.)
  ----------------------------------------
      1 C                     0.329591
      2 O                    -0.647361
      3 O                    -0.588408
      4 C                    -0.110664
      5 C                    -0.600659
      6 O                    -0.652292
      7 C                     0.319114
      8 O                    -0.462311
      9 C                    -0.723631
     10 H                     0.217436
     11 H                     0.205831
     12 H                     0.168909
     13 H                     0.175643
     14 H                     0.227370
     15 H                     0.141433
  ----------------------------------------
  Sum of atomic charges =    -2.000000

 -----------------------------------------------------------------
                    Cartesian Multipole Moments
 -----------------------------------------------------------------
    Charge (ESU x 10^10)
                -9.6064
    Dipole Moment (Debye)
         X      -5.0000      Y       3.3844      Z      -1.7652
       Tot       6.2905
    Quadrupole Moments (Debye-Ang)
        XX     -93.8115     XY      -6.6767     YY     -80.5514
        XZ       3.7161     YZ       0.2832     ZZ     -77.2948
    Octopole Moments (Debye-Ang^2)
       XXX      -8.3436    XXY     -17.3384    XYY       2.4899
       YYY      11.6926    XXZ       3.4102    XYZ      -4.5403
       YYZ       1.8271    XZZ      -0.8581    YZZ      -1.8168
       ZZZ      35.8153
    Hexadecapole Moments (Debye-Ang^3)
      XXXX    -965.4414   XXXY     -26.8120   XXYY    -241.0011
      XYYY      18.4248   YYYY    -560.4834   XXXZ      71.3779
      XXYZ      -4.4442   XYYZ       0.6897   YYYZ     -19.5899
      XXZZ    -245.1050   XYZZ     -13.5100   YYZZ    -164.9682
      XZZZ       3.9460   YZZZ     -38.3869   ZZZZ    -524.6805
 -----------------------------------------------------------------
 Calculating analytic gradient of the SCF energy
 CPU 0.00 s  wall 0.00 s
 CPU 10.25 s  wall 11.10 s
 Gradient of SCF Energy
            1           2           3           4           5           6
    1  -0.0043725   0.0111672   0.0001552  -0.0015378   0.0016159   0.0019057
    2  -0.0017510   0.0041601  -0.0063133  -0.0016883  -0.0054968  -0.0029034
    3   0.0105840  -0.0042785  -0.0087210   0.0092240  -0.0058999   0.0150944
            7           8           9          10          11          12
    1  -0.0327459   0.0350607  -0.0029823  -0.0029460   0.0006219   0.0051753
    2  -0.0285640   0.0190286  -0.0008477   0.0040396   0.0022785  -0.0011066
    3   0.0159739  -0.0222539  -0.0053219  -0.0000567   0.0011085   0.0017906
           13          14          15
    1   0.0023636  -0.0085571  -0.0049238
    2   0.0047748   0.0050640   0.0093254
    3  -0.0000014   0.0044763  -0.0117185
 Max gradient component =       3.506E-02
 RMS gradient           =       1.109E-02
 Gradient time:  CPU 94.17 s  wall 109.67 s
the nuclear gradient is: 
-0.0082627 -0.0033089 0.0200008
0.0211028 0.0078615 -0.0080852
0.0002934 -0.0119303 -0.0164803
-0.0029061 -0.0031903 0.0174308
0.0030537 -0.0103873 -0.0111491
0.0036012 -0.0054865 0.0285242
-0.0618805 -0.0539779 0.0301862
0.0662547 0.0359587 -0.0420535
-0.0056356 -0.0016019 -0.0100569
-0.0055672 0.0076337 -0.0001071
0.0011751 0.0043058 0.0020948
0.0097799 -0.0020911 0.0033837
0.0044664 0.0090229 -0.0000027
-0.0161705 0.0095695 0.0084590
-0.0093045 0.0176223 -0.0221447
calcGrad Returned
Calling opt_gen...
Calculate magnitude of step
Normalize
Hessian updated
Gradient convergence criteria satisfied
done with opt_step_by_gradient, Reactant, iter1
-Optimizing new product side node
Using BFGS, step: 2 E_tol 0.0167842
max_steps 3 node_spacing 0.4392444 sigma 0.7000000
Calling calcGrad
coords address 0x1b68b360 grads address 0x1b68b660
 ----------------------------------------------------------------
             Standard Nuclear Orientation (Angstroms)
    I     Atom           X                Y                Z
 ----------------------------------------------------------------
    1      C       1.9130914151    -0.3438716117     0.6179744190
    2      O       2.3969787243     0.8176558209     0.5689396487
    3      O       2.5746997729    -1.3944808719     0.4051613506
    4      C       0.4429256519    -0.6142501326     1.0162018570
    5      C      -0.1769552921    -0.5486286511    -1.3767135088
    6      O       0.2643736598    -1.0604155356     2.1640761865
    7      C      -0.8217587389    -0.2796731153     0.1515940718
    8      O      -1.9043527788    -0.9913527269     0.4370420136
    9      C      -1.0318937319     1.2697587360     0.2698768449
   10      H      -1.7320412803     1.5664460475    -0.5246444173
   11      H      -0.1643843622     1.9410854298     0.2146653729
   12      H      -1.5175752743     1.4433977874     1.2388334962
   13      H      -0.0859838074    -1.6327872658    -1.5103378544
   14      H       0.7678627164    -0.0688296328    -1.6658681655
   15      H      -0.9598814665    -0.1824558478    -2.0603709469
 ----------------------------------------------------------------
 Nuclear Repulsion Energy =   446.3182207903 hartrees
 There are       35 alpha and       35 beta electrons

                       Distance Matrix (Angstroms)
             C (  1)   O (  2)   O (  3)   C (  4)   C (  5)   O (  6)
   O (  2)  1.259245
   O (  3)  1.259680  2.225299
   C (  4)  1.546957  2.463478  2.350870
   C (  5)  2.896377  3.503917  3.385580  2.472772
   O (  6)  2.371104  3.258775  2.922839  1.244411  3.604704
   C (  7)  2.775074  3.426161  3.583716  1.568093  1.680426  2.416470
   O (  8)  3.876190  4.668122  4.497270  2.446906  2.543544  2.773228
   C (  9)  3.376079  3.471455  4.485977  2.506309  2.597828  3.270782
   H ( 10)  4.271052  4.336522  5.308450  3.443853  2.760046  4.256206
   H ( 11)  3.114417  2.819253  4.320286  2.746093  2.954881  3.604587
   H ( 12)  3.917815  4.020453  5.049285  2.850797  3.550566  3.209439
   H ( 13)  3.191758  4.061178  3.287121  2.774989  1.096144  3.735195
   H ( 14)  2.569656  2.904177  3.051422  2.756187  1.098407  3.988135
   H ( 15)  3.931102  4.379727  4.476731  3.408756  1.102018  4.485038
             C (  7)   O (  8)   C (  9)   H ( 10)   H ( 11)   H ( 12)
   O (  8)  1.326642
   C (  9)  1.568084  2.429353
   H ( 10)  2.166580  2.738041  1.099770
   H ( 11)  2.316870  3.417036  1.098317  1.773269
   H ( 12)  2.152957  2.592388  1.097686  1.780728  1.768541
   H ( 13)  2.265899  2.740473  3.533933  3.730441  3.969175  4.366957
   H ( 14)  2.423741  3.523353  2.962778  3.197818  2.906071  3.993413
   H ( 15)  2.218404  2.789877  2.746665  2.452212  3.212170  3.720104
             H ( 13)   H ( 14)
   H ( 14)  1.788633
   H ( 15)  1.780364  1.775850
 
 Requested basis set is 6-31+G(d)
 There are 57 shells and 183 basis functions
 A cutoff of  1.0D-11 yielded   1540 shell pairs
 There are     16529 function pairs
 Smallest overlap matrix eigenvalue = 3.02E-05
 Placing solute cavity origin at the center of mass
 Center of Onsager solute cavity (Angst): (   0.411256,  -0.347261,   0.469066)
 Solvent multipole matrices computed through 15th order

 Scale SEOQF with 1.000000e-01/1.000000e-01/1.000000e-01

 Standard Electronic Orientation quadrupole field applied
 Guess from superposition of atomic densities
 Warning:  Energy on first SCF cycle will be non-variational
 A restricted hybrid HF-DFT SCF calculation will be
 performed using Pulay DIIS extrapolation
 Kirkwood-Onsager solvation model will be applied
 Exchange:     0.2000 Hartree-Fock + 0.0800 Slater + 0.7200 B88
 Correlation:  0.1900 VWN1RPA + 0.8100 LYP
 Using SG-1 standard quadrature grid
 SCF converges when DIIS error is below 1.0E-08
 Kirkwood-Onsager SCRF: 
 Maximum multipole order     = 15
 Solvent dielectric constant = 78.3900
 Cavity radius               = 56.6917 bohr
 Born term (E_born)          = -0.03482849 a.u. = -21.8552 kcal/mol
 CPU 0.00 s  wall 0.00 s
 Inaccurate integrated density:
   Number of electrons =    70
   Numerical integral  =    68.000375722908
   Relative error      =    -2.8566061101 %
 CPU 5.85 s  wall 6.40 s
 ---------------------------------------
  Cycle       Energy         DIIS Error
 ---------------------------------------
    1    -496.1634093128      4.82E-02
 CPU 0.00 s  wall 0.00 s
 CPU 6.63 s  wall 7.91 s
    2    -494.6159427082      1.07E-02
 CPU 0.00 s  wall 0.00 s
 CPU 6.64 s  wall 8.07 s
    3    -489.9765119757      2.74E-02
 CPU 0.00 s  wall 0.00 s
 CPU 6.62 s  wall 8.89 s
    4    -494.6566370558      9.96E-03
 CPU 0.00 s  wall 0.00 s
 CPU 6.59 s  wall 8.31 s
    5    -494.9973846479      2.95E-03
 CPU 0.00 s  wall 0.00 s
 CPU 6.56 s  wall 8.98 s
    6    -495.0338328277      1.36E-03
 CPU 0.00 s  wall 0.00 s
 CPU 6.60 s  wall 7.50 s
    7    -495.0392977546      6.62E-04
 CPU 0.00 s  wall 0.00 s
 CPU 6.40 s  wall 7.61 s
    8    -495.0403769793      3.55E-04
 CPU 0.00 s  wall 0.00 s
 CPU 6.46 s  wall 7.49 s
    9    -495.0408064611      4.13E-05
 CPU 0.00 s  wall 0.00 s
 CPU 6.40 s  wall 7.54 s
   10    -495.0408113199      1.67E-05
 CPU 0.00 s  wall 0.00 s
 CPU 6.26 s  wall 7.48 s
   11    -495.0408123336      6.92E-06
 CPU 0.00 s  wall 0.00 s
 CPU 6.16 s  wall 6.98 s
   12    -495.0408124603      3.88E-06
 CPU 0.00 s  wall 0.00 s
 CPU 6.10 s  wall 7.39 s
   13    -495.0408125097      1.04E-06
 CPU 0.00 s  wall 0.00 s
 CPU 5.94 s  wall 7.09 s
   14    -495.0408125138      3.83E-07
 CPU 0.00 s  wall 0.00 s
 CPU 5.80 s  wall 6.60 s
   15    -495.0408125147      8.51E-08
 CPU 0.00 s  wall 0.00 s
 CPU 5.69 s  wall 7.51 s
   16    -495.0408125139      1.71E-08
 CPU 0.00 s  wall 0.00 s
 CPU 5.22 s  wall 6.22 s
   17    -495.0408125138      9.76E-09 Convergence criterion met
 ---------------------------------------
 SCF time:  CPU 267.77 s  wall 331.02 s
 SCF   energy in the final basis set = -495.0408125138
 Total energy in the final basis set = -495.0408125138
 
 --------------------------------------------------------------
 
                    Orbital Energies (a.u.)
 --------------------------------------------------------------
 
 Alpha MOs
 -- Occupied --
-18.837 -18.802 -18.796 -18.753  -9.973  -9.958  -9.941  -9.897
 -9.889  -0.736  -0.709  -0.633  -0.625  -0.449  -0.397  -0.338
 -0.256  -0.175  -0.151  -0.142  -0.133  -0.125  -0.115  -0.104
 -0.083  -0.069  -0.063  -0.046  -0.037   0.016   0.048   0.067
  0.071   0.102   0.114
 -- Virtual --
  0.231   0.240   0.268   0.281   0.283   0.288   0.299   0.304
  0.306   0.311   0.329   0.340   0.346   0.350   0.358   0.360
  0.368   0.385   0.402   0.406   0.433   0.456   0.474   0.485
  0.490   0.502   0.506   0.526   0.531   0.536   0.545   0.555
  0.567   0.571   0.575   0.584   0.596   0.603   0.605   0.616
  0.620   0.637   0.643   0.659   0.665   0.688   0.692   0.724
  0.737   0.800   0.811   0.826   0.925   0.942   0.972   1.004
  1.033   1.052   1.083   1.091   1.105   1.115   1.148   1.169
  1.181   1.213   1.249   1.267   1.283   1.301   1.339   1.377
  1.385   1.426   1.457   1.514   1.526   1.560   1.598   1.612
  1.628   1.641   1.646   1.657   1.675   1.694   1.710   1.740
  1.745   1.783   1.793   1.845   1.880   1.916   1.927   1.960
  1.972   1.986   2.030   2.074   2.093   2.130   2.137   2.166
  2.180   2.199   2.240   2.245   2.256   2.266   2.303   2.313
  2.369   2.377   2.403   2.459   2.480   2.510   2.548   2.562
  2.577   2.587   2.662   2.714   2.721   2.805   2.820   2.891
  2.958   3.009   3.036   3.099   3.152   3.222   3.359   3.401
  3.440   3.485   3.525   4.467   4.557   4.608   4.637   4.666
  4.767   4.805   4.904   5.062
 --------------------------------------------------------------
 
          Ground-State Mulliken Net Atomic Charges

     Atom                 Charge (a.u.)
  ----------------------------------------
      1 C                     0.173313
      2 O                    -0.598238
      3 O                    -0.585371
      4 C                     0.412239
      5 C                    -0.739000
      6 O                    -0.467099
      7 C                     0.040149
      8 O                    -0.655272
      9 C                    -0.680520
     10 H                     0.155738
     11 H                     0.207905
     12 H                     0.191520
     13 H                     0.198440
     14 H                     0.197058
     15 H                     0.149137
  ----------------------------------------
  Sum of atomic charges =    -2.000000

 -----------------------------------------------------------------
                    Cartesian Multipole Moments
 -----------------------------------------------------------------
    Charge (ESU x 10^10)
                -9.6064
    Dipole Moment (Debye)
         X      -0.3995      Y       2.3933      Z      -1.2207
       Tot       2.7161
    Quadrupole Moments (Debye-Ang)
        XX    -109.5607     XY      -4.3811     YY     -75.2168
        XZ      -0.8596     YZ       2.1607     ZZ     -72.6733
    Octopole Moments (Debye-Ang^2)
       XXX      21.2210    XXY       7.0550    XYY      -0.7863
       YYY     -21.0981    XXZ      11.5182    XYZ      -2.1506
       YYZ       5.9098    XZZ      13.2248    YZZ       3.7280
       ZZZ      25.2169
    Hexadecapole Moments (Debye-Ang^3)
      XXXX   -1239.2530   XXXY      12.2125   XXYY    -287.2231
      XYYY      43.2660   YYYY    -436.3974   XXXZ     -51.2996
      XXYZ       2.2848   XYYZ     -19.7211   YYYZ      20.9305
      XXZZ    -235.4969   XYZZ       8.0005   YYZZ    -144.6253
      XZZZ     -58.7819   YZZZ      23.6176   ZZZZ    -510.5506
 -----------------------------------------------------------------
 Calculating analytic gradient of the SCF energy
 CPU 0.00 s  wall 0.00 s
 CPU 10.17 s  wall 11.64 s
 Gradient of SCF Energy
            1           2           3           4           5           6
    1  -0.0150537   0.0120649  -0.0001976   0.0110451   0.0281023  -0.0065497
    2   0.0082243  -0.0153942   0.0140245  -0.0062924  -0.0021732  -0.0024420
    3   0.0061932  -0.0038007   0.0030689  -0.0419578  -0.0041477   0.0126728
            7           8           9          10          11          12
    1  -0.0343851  -0.0019909   0.0077350   0.0035944  -0.0065332   0.0020456
    2   0.0086464  -0.0064393  -0.0046828  -0.0002876   0.0070285  -0.0005723
    3   0.0247419   0.0096261  -0.0022093   0.0001686   0.0018939  -0.0006989
           13          14          15
    1  -0.0005630  -0.0003973   0.0010832
    2   0.0005287  -0.0021127   0.0019441
    3  -0.0007847  -0.0082206   0.0034545
 Max gradient component =       4.196E-02
 RMS gradient           =       1.172E-02
 Gradient time:  CPU 92.02 s  wall 105.29 s
the nuclear gradient is: 
-0.0284472 0.0155417 0.0117033
0.0227992 -0.0290906 -0.0071822
-0.0003734 0.0265024 0.0057993
0.0208720 -0.0118909 -0.0792884
0.0531054 -0.0041068 -0.0078380
-0.0123771 -0.0046148 0.0239480
-0.0649781 0.0163392 0.0467551
-0.0037622 -0.0121684 0.0181905
0.0146169 -0.0088491 -0.0041750
0.0067924 -0.0005435 0.0003185
-0.0123459 0.0132819 0.0035789
0.0038655 -0.0010815 -0.0013207
-0.0010639 0.0009990 -0.0014828
-0.0007507 -0.0039924 -0.0155345
0.0020470 0.0036738 0.0065281
calcGrad Returned
Calling opt_gen...
Calculate magnitude of step
Normalize
Gradient flag: 0.5919214
Calling calcGrad
coords address 0x1b68bc60 grads address 0x1b68bf60
 ----------------------------------------------------------------
             Standard Nuclear Orientation (Angstroms)
    I     Atom           X                Y                Z
 ----------------------------------------------------------------
    1      C       1.9239333659    -0.3474487846     0.6122001486
    2      O       2.3884076280     0.8311632101     0.5661800529
    3      O       2.5759836933    -1.4022175962     0.4069037649
    4      C       0.4341613830    -0.6111227890     1.0448286107
    5      C      -0.1966893739    -0.5482844056    -1.3731984670
    6      O       0.2709171629    -1.0655999089     2.1494270991
    7      C      -0.7978107568    -0.2852876039     0.1353713050
    8      O      -1.9044659144    -0.9848808156     0.4342784056
    9      C      -1.0382952616     1.2742076034     0.2726654653
   10      H      -1.7305111681     1.5685551646    -0.5273262426
   11      H      -0.1607368424     1.9380697197     0.2199824362
   12      H      -1.5248523561     1.4444235399     1.2378487891
   13      H      -0.0888749511    -1.6350191061    -1.5088715030
   14      H       0.7715389423    -0.0728627720    -1.6614200318
   15      H      -0.9576040313    -0.1820978967    -2.0624357877
 ----------------------------------------------------------------
 Nuclear Repulsion Energy =   446.4049005775 hartrees
 There are       35 alpha and       35 beta electrons

                       Distance Matrix (Angstroms)
             C (  1)   O (  2)   O (  3)   C (  4)   C (  5)   O (  6)
   O (  2)  1.267667
   O (  3)  1.256922  2.246896
   C (  4)  1.573567  2.475555  2.370692
   C (  5)  2.911904  3.513800  3.403775  2.499755
   O (  6)  2.368812  3.253943  2.909129  1.205544  3.590983
   C (  7)  2.763896  3.403534  3.564232  1.565579  1.645083  2.409873
   O (  8)  3.885179  4.663065  4.499928  2.445740  2.524696  2.771379
   C (  9)  3.394091  3.467670  4.499365  2.513729  2.595890  3.272762
   H ( 10)  4.280719  4.324927  5.314525  3.450866  2.747566  4.255525
   H ( 11)  3.118217  2.800577  4.322279  2.744569  2.953214  3.595986
   H ( 12)  3.936542  4.017565  5.060701  2.846096  3.542946  3.218071
   H ( 13)  3.195024  4.065074  3.290268  2.800592  1.100465  3.719790
   H ( 14)  2.563739  2.897193  3.049782  2.779807  1.116496  3.969724
   H ( 15)  3.935006  4.374027  4.480242  3.431642  1.090015  4.475447
             C (  7)   O (  8)   C (  9)   H ( 10)   H ( 11)   H ( 12)
   O (  8)  1.342930
   C (  9)  1.583890  2.424840
   H ( 10)  2.178493  2.734041  1.098085
   H ( 11)  2.314377  3.410301  1.101634  1.777415
   H ( 12)  2.176223  2.586765  1.094208  1.781445  1.772160
   H ( 13)  2.242298  2.737678  3.541027  3.731124  3.970021  4.369150
   H ( 14)  2.395087  3.519195  2.971664  3.200106  2.907346  3.997666
   H ( 15)  2.206023  2.788295  2.753186  2.453311  3.215516  3.722797
             H ( 13)   H ( 14)
   H ( 14)  1.789948
   H ( 15)  1.781040  1.778393
 
 Requested basis set is 6-31+G(d)
 There are 57 shells and 183 basis functions
 A cutoff of  1.0D-11 yielded   1541 shell pairs
 There are     16530 function pairs
 Smallest overlap matrix eigenvalue = 2.97E-05
 Placing solute cavity origin at the center of mass
 Center of Onsager solute cavity (Angst): (   0.411148,  -0.346555,   0.468035)
[...]
    3  -0.0323303   0.0212528  -0.0009506  -0.0111434   0.0152157   0.0173069
            7           8           9          10          11          12
    1   0.0082294  -0.0074046  -0.0010573  -0.0026682  -0.0008023  -0.0024659
    2   0.0004668  -0.0076758  -0.0002426   0.0009581   0.0002862  -0.0020681
    3  -0.0107075   0.0094171  -0.0006227   0.0003723   0.0002653   0.0012001
           13          14          15
    1   0.0011103  -0.0019840  -0.0000480
    2   0.0051310   0.0007386   0.0003668
    3  -0.0020254  -0.0041939  -0.0030563
 Max gradient component =       3.233E-02
 RMS gradient           =       8.046E-03
 Gradient time:  CPU 90.68 s  wall 104.67 s
the nuclear gradient is: 
-0.0023098 0.0034533 -0.0610951
0.0177162 -0.0048208 0.0401618
-0.0044157 -0.0113192 -0.0017963
-0.0009875 -0.0060665 -0.0210578
0.0097967 0.0041873 0.0287533
-0.0064008 0.0184191 0.0327051
0.0155513 0.0008821 -0.0202342
-0.0139925 -0.0145050 0.0177956
-0.0019980 -0.0004585 -0.0011767
-0.0050421 0.0018105 0.0007036
-0.0015162 0.0005408 0.0005014
-0.0046599 -0.0039082 0.0022678
0.0020981 0.0096961 -0.0038275
-0.0037492 0.0013958 -0.0079254
-0.0000908 0.0006932 -0.0057756
 ----------------------------------------------------------------
             Standard Nuclear Orientation (Angstroms)
    I     Atom           X                Y                Z
 ----------------------------------------------------------------
    1      C       1.8861375831    -0.0494038092     0.5698530279
    2      O       2.4445271617     0.5244974853    -0.3952087217
    3      O       2.3854971272    -0.1381892252     1.7334169729
    4      C       0.4677519159    -0.8188658722     0.5854020255
    5      C      -0.0708962236    -0.7849350288    -1.3993173758
    6      O       0.4888321419    -1.9305441158     1.1830176904
    7      C      -0.8799086079    -0.1607339442     0.5199422558
    8      O      -1.9161589176    -0.7929711188     0.8819346316
    9      C      -1.0800922767     1.3615884406     0.3493254588
   10      H      -0.8160935426     1.7664736013    -0.6339757436
   11      H      -0.4973883853     1.9110979660     1.1033818256
   12      H      -2.1514046117     1.5314489880     0.5353400185
   13      H      -0.5702403450    -1.7464869419    -1.5153644075
   14      H       0.9415933241    -0.7748576504    -1.8131190626
   15      H      -0.6546913626    -0.0066279587    -1.9242268873
 ----------------------------------------------------------------
 Nuclear Repulsion Energy =   444.6167550289 hartrees
 There are       35 alpha and       35 beta electrons

                       Distance Matrix (Angstroms)
             C (  1)   O (  2)   O (  3)   C (  4)   C (  5)   O (  6)
   O (  2)  1.253996
   O (  3)  1.269301  2.230176
   C (  4)  1.613732  2.583382  2.336452
   C (  5)  2.872041  3.008355  4.033134  2.056795
   O (  6)  2.422214  3.513228  2.666986  1.262306  2.879960
   C (  7)  2.768736  3.515525  3.483662  1.501203  2.174324  2.333527
   O (  8)  3.886868  4.731004  4.433735  2.402422  2.934139  2.677444
   C (  9)  3.292120  3.698377  4.021859  2.684387  2.946827  3.740950
   H ( 10)  3.471119  3.497308  4.413895  3.133548  2.765999  4.321138
   H ( 11)  3.131999  3.580964  3.592708  2.941513  3.703241  3.967012
   H ( 12)  4.336131  4.796088  4.980618  3.519441  3.665658  4.401787
   H ( 13)  3.641705  3.937124  4.677348  2.520145  1.089676  2.904613
   H ( 14)  2.664020  2.440820  3.881768  2.445274  1.093832  3.243060
   H ( 15)  3.560629  3.496448  4.757984  2.866679  1.105490  3.829369
             C (  7)   O (  8)   C (  9)   H ( 10)   H ( 11)   H ( 12)
   O (  8)  1.266719
   C (  9)  1.544878  2.371668
   H ( 10)  2.247160  3.171575  1.095677
   H ( 11)  2.186141  3.061689  1.100048  1.772259
   H ( 12)  2.116701  2.361863  1.100529  1.790417  1.789574
   H ( 13)  2.598650  2.909937  3.660212  3.630177  4.499007  4.177360
   H ( 14)  3.022944  3.928154  3.650723  3.307296  4.217938  4.516741
   H ( 15)  2.459356  3.175560  2.687382  2.198792  3.587315  3.264246
             H ( 13)   H ( 14)
   H ( 14)  1.821637
   H ( 15)  1.789248  1.775006
 
 Requested basis set is 6-31+G(d)
 There are 57 shells and 183 basis functions
 A cutoff of  1.0D-11 yielded   1542 shell pairs
 There are     16582 function pairs
 Smallest overlap matrix eigenvalue = 2.25E-05
 Placing solute cavity origin at the center of mass
 Center of Onsager solute cavity (Angst): (   0.419331,  -0.308472,   0.443405)
 Solvent multipole matrices computed through 15th order

 Scale SEOQF with 1.000000e-01/1.000000e-01/1.000000e-01

 Standard Electronic Orientation quadrupole field applied
 Guess from superposition of atomic densities
 Warning:  Energy on first SCF cycle will be non-variational
 A restricted hybrid HF-DFT SCF calculation will be
 performed using Pulay DIIS extrapolation
 Kirkwood-Onsager solvation model will be applied
 Exchange:     0.2000 Hartree-Fock + 0.0800 Slater + 0.7200 B88
 Correlation:  0.1900 VWN1RPA + 0.8100 LYP
 Using SG-1 standard quadrature grid
 SCF converges when DIIS error is below 1.0E-08
 Kirkwood-Onsager SCRF: 
 Maximum multipole order     = 15
 Solvent dielectric constant = 78.3900
 Cavity radius               = 56.6917 bohr
 Born term (E_born)          = -0.03482849 a.u. = -21.8552 kcal/mol
 CPU 0.00 s  wall 0.00 s
 Inaccurate integrated density:
   Number of electrons =    70
   Numerical integral  =    67.999496152561
   Relative error      =    -2.8578626392 %
 CPU 5.77 s  wall 6.59 s
 ---------------------------------------
  Cycle       Energy         DIIS Error
 ---------------------------------------
    1    -496.1024704760      4.80E-02
 CPU 0.00 s  wall 0.00 s
 CPU 6.60 s  wall 7.83 s
    2    -494.5742794123      1.06E-02
 CPU 0.00 s  wall 0.00 s
 CPU 6.63 s  wall 7.60 s
    3    -490.5429966747      2.87E-02
 CPU 0.00 s  wall 0.00 s
 CPU 6.54 s  wall 7.39 s
    4    -494.6892514038      8.45E-03
 CPU 0.00 s  wall 0.00 s
 CPU 6.50 s  wall 7.63 s
    5    -494.9836309710      1.50E-03
 CPU 0.00 s  wall 0.00 s
 CPU 6.52 s  wall 6.99 s
    6    -494.9852510362      1.80E-03
 CPU 0.00 s  wall 0.00 s
 CPU 6.49 s  wall 7.75 s
    7    -494.9951832014      5.72E-04
 CPU 0.00 s  wall 0.00 s
 CPU 6.47 s  wall 6.48 s
    8    -494.9961384282      2.02E-04
 CPU 0.00 s  wall 0.00 s
 CPU 6.35 s  wall 7.51 s
    9    -494.9962884384      3.90E-05
 CPU 0.00 s  wall 0.00 s
 CPU 6.27 s  wall 7.29 s
   10    -494.9962937142      2.09E-05
 CPU 0.00 s  wall 0.00 s
 CPU 6.20 s  wall 7.50 s
   11    -494.9962951936      6.57E-06
 CPU 0.00 s  wall 0.00 s
 CPU 6.15 s  wall 6.55 s
   12    -494.9962953258      3.57E-06
 CPU 0.00 s  wall 0.00 s
 CPU 6.00 s  wall 6.27 s
   13    -494.9962953724      9.17E-07
 CPU 0.00 s  wall 0.00 s
 CPU 5.89 s  wall 6.67 s
   14    -494.9962953751      3.25E-07
 CPU 0.00 s  wall 0.00 s
 CPU 5.86 s  wall 6.72 s
   15    -494.9962953759      7.74E-08
 CPU 0.00 s  wall 0.00 s
 CPU 5.59 s  wall 6.44 s
   16    -494.9962953734      3.24E-08
 CPU 0.00 s  wall 0.00 s
 CPU 5.38 s  wall 6.60 s
   17    -494.9962953735      7.40E-09 Convergence criterion met
 ---------------------------------------
 SCF time:  CPU 267.38 s  wall 314.20 s
 SCF   energy in the final basis set = -494.9962953735
 Total energy in the final basis set = -494.9962953735
 
 --------------------------------------------------------------
 
                    Orbital Energies (a.u.)
 --------------------------------------------------------------
 
 Alpha MOs
 -- Occupied --
-18.817 -18.789 -18.776 -18.775  -9.968  -9.960  -9.942  -9.922
 -9.883  -0.714  -0.703  -0.658  -0.613  -0.463  -0.395  -0.330
 -0.242  -0.186  -0.162  -0.144  -0.135  -0.108  -0.104  -0.102
 -0.082  -0.081  -0.069  -0.057  -0.004   0.037   0.052   0.065
  0.092   0.100   0.114
 -- Virtual --
  0.219   0.240   0.263   0.272   0.280   0.297   0.300   0.309
  0.312   0.322   0.334   0.337   0.341   0.343   0.347   0.362
  0.375   0.385   0.395   0.403   0.409   0.426   0.466   0.474
  0.494   0.496   0.511   0.521   0.533   0.538   0.546   0.554
  0.562   0.574   0.578   0.590   0.594   0.600   0.607   0.611
  0.623   0.641   0.645   0.655   0.674   0.694   0.706   0.726
  0.749   0.787   0.827   0.880   0.922   0.943   0.971   0.991
  1.012   1.044   1.097   1.107   1.128   1.146   1.150   1.167
  1.195   1.232   1.241   1.263   1.278   1.310   1.337   1.369
  1.392   1.426   1.445   1.497   1.525   1.534   1.559   1.618
  1.622   1.637   1.647   1.661   1.671   1.681   1.689   1.736
  1.739   1.760   1.766   1.814   1.850   1.885   1.930   1.950
  1.970   2.013   2.034   2.073   2.091   2.106   2.139   2.147
  2.184   2.213   2.219   2.246   2.265   2.282   2.293   2.327
  2.342   2.389   2.421   2.477   2.494   2.500   2.535   2.587
  2.613   2.653   2.686   2.702   2.737   2.770   2.816   2.881
  2.925   3.004   3.027   3.069   3.156   3.253   3.367   3.436
  3.444   3.503   3.555   4.456   4.501   4.615   4.629   4.700
  4.759   4.807   4.877   5.138
 --------------------------------------------------------------
 
          Ground-State Mulliken Net Atomic Charges

     Atom                 Charge (a.u.)
  ----------------------------------------
      1 C                     0.309543
      2 O                    -0.616896
      3 O                    -0.587371
      4 C                     0.170200
      5 C                    -0.918200
      6 O                    -0.537075
      7 C                     0.459217
      8 O                    -0.549500
      9 C                    -0.856594
     10 H                     0.191637
     11 H                     0.196178
     12 H                     0.182780
     13 H                     0.190409
     14 H                     0.221426
     15 H                     0.144247
  ----------------------------------------
  Sum of atomic charges =    -2.000000

 -----------------------------------------------------------------
                    Cartesian Multipole Moments
 -----------------------------------------------------------------
    Charge (ESU x 10^10)
                -9.6064
    Dipole Moment (Debye)
         X      -3.3586      Y       2.9634      Z      -1.2173
       Tot       4.6415
    Quadrupole Moments (Debye-Ang)
        XX    -101.3275     XY      -9.2852     YY     -74.5064
        XZ      -2.5401     YZ       4.6414     ZZ     -80.3045
    Octopole Moments (Debye-Ang^2)
       XXX       5.3404    XXY     -13.5215    XYY       5.0972
       YYY      -0.8155    XXZ      -3.9733    XYZ       3.0651
       YYZ       5.0937    XZZ      -4.1605    YZZ       3.9245
       ZZZ      46.7680
    Hexadecapole Moments (Debye-Ang^3)
      XXXX   -1136.0983   XXXY     -53.9374   XXYY    -248.2313
      XYYY       5.6940   YYYY    -475.9898   XXXZ     -34.2064
      XXYZ      15.2280   XYYZ      -8.8385   YYYZ      26.6691
      XXZZ    -273.2435   XYZZ     -13.1719   YYZZ    -161.0404
      XZZZ     -70.6257   YZZZ      -6.8218   ZZZZ    -578.1533
 -----------------------------------------------------------------
 Calculating analytic gradient of the SCF energy
 CPU 0.00 s  wall 0.00 s
 CPU 10.27 s  wall 12.38 s
 Gradient of SCF Energy
            1           2           3           4           5           6
    1  -0.0013331   0.0093636  -0.0021676  -0.0004507   0.0050600  -0.0033598
    2   0.0018112  -0.0025556  -0.0059979  -0.0032748   0.0022868   0.0097792
    3  -0.0321608   0.0213805  -0.0011324  -0.0109865   0.0152255   0.0174478
            7           8           9          10          11          12
    1   0.0083036  -0.0073524  -0.0010300  -0.0026718  -0.0007761  -0.0024412
    2   0.0003549  -0.0076812  -0.0002531   0.0009897   0.0002809  -0.0021021
    3  -0.0108768   0.0093357  -0.0006623   0.0003534   0.0002583   0.0011916
           13          14          15
    1   0.0010663  -0.0020493  -0.0001616
    2   0.0051533   0.0007929   0.0004160
    3  -0.0020325  -0.0041155  -0.0032261
 Max gradient component =       3.216E-02
 RMS gradient           =       8.045E-03
 Gradient time:  CPU 91.12 s  wall 106.11 s
the nuclear gradient is: 
-0.0025191 0.0034227 -0.0607747
0.0176945 -0.0048294 0.0404031
-0.0040961 -0.0113344 -0.0021400
-0.0008517 -0.0061885 -0.0207614
0.0095620 0.0043214 0.0287719
-0.0063491 0.0184798 0.0329713
0.0156914 0.0006707 -0.0205541
-0.0138939 -0.0145154 0.0176419
-0.0019464 -0.0004782 -0.0012516
-0.0050489 0.0018702 0.0006679
-0.0014667 0.0005308 0.0004881
-0.0046131 -0.0039723 0.0022518
0.0020151 0.0097382 -0.0038408
-0.0038725 0.0014984 -0.0077770
-0.0003055 0.0007860 -0.0060963
E1 = -494.9962420 E2 = -494.9962954 and Emax = -494.9962679
Iteration = 5 Curvature = -0.0536583
Curvature, final (in Ha/Bo^2) = -0.0150259
 ----------------------------------------------------------------
             Standard Nuclear Orientation (Angstroms)
    I     Atom           X                Y                Z
 ----------------------------------------------------------------
    1      C       1.8867682439    -0.0499046387     0.5699647800
    2      O       2.4435575385     0.5258802191    -0.3948714196
    3      O       2.3874419478    -0.1406217461     1.7328567158
    4      C       0.4679345058    -0.8186194438     0.5869889812
    5      C      -0.0715701644    -0.7845437878    -1.3996007928
    6      O       0.4884477376    -1.9300611220     1.1844575197
    7      C      -0.8797738948    -0.1609168699     0.5188663630
    8      O      -1.9163275140    -0.7932148651     0.8807351253
    9      C      -1.0800169695     1.3615616279     0.3491216670
   10      H      -0.8173494589     1.7666109720    -0.6344694731
   11      H      -0.4964666937     1.9110534288     1.1025330909
   12      H      -2.1511086037     1.5313915366     0.5364920383
   13      H      -0.5699845935    -1.7465986975    -1.5153038008
   14      H       0.9412903744    -0.7739746254    -1.8125924470
   15      H      -0.6554766344    -0.0067772227    -1.9248567900
 ----------------------------------------------------------------
 Nuclear Repulsion Energy =   444.5984174649 hartrees
 There are       35 alpha and       35 beta electrons
 Requested basis set is 6-31+G(d)
 There are 57 shells and 183 basis functions
 Geometry Optimization Parameters
   NAtoms,    NIC,     NZ,  NCons,   NDum,   NFix, NCnnct, MaxDiis
       15     132       0       0       0       0       0       0


** GEOMETRY OPTIMIZATION IN DELOCALIZED INTERNAL COORDINATES **
   Searching for a Minimum

   Optimization Cycle:   1

                       Coordinates (Angstroms)
     ATOM                X               Y               Z
      1  C         1.8867682439   -0.0499046387    0.5699647800
      2  O         2.4435575385    0.5258802191   -0.3948714196
      3  O         2.3874419478   -0.1406217461    1.7328567158
      4  C         0.4679345058   -0.8186194438    0.5869889812
      5  C        -0.0715701644   -0.7845437878   -1.3996007928
      6  O         0.4884477376   -1.9300611220    1.1844575197
      7  C        -0.8797738948   -0.1609168699    0.5188663630
      8  O        -1.9163275140   -0.7932148651    0.8807351253
      9  C        -1.0800169695    1.3615616279    0.3491216670
     10  H        -0.8173494589    1.7666109720   -0.6344694731
     11  H        -0.4964666937    1.9110534288    1.1025330909
     12  H        -2.1511086037    1.5313915366    0.5364920383
     13  H        -0.5699845935   -1.7465986975   -1.5153038008
     14  H         0.9412903744   -0.7739746254   -1.8125924470
     15  H        -0.6554766344   -0.0067772227   -1.9248567900
   Point Group: c1    Number of degrees of freedom:    39


   Energy is   -494.996295373


 Attempting to Generate Delocalized Internal Coordinates

 39 Hessian modes will be used to form the next step
  Hessian Eigenvalues:
     0.002000    0.002017    0.003426    0.004980    0.023094    0.028333
     0.029096    0.030024    0.035101    0.039914    0.043162    0.045451
     0.059649    0.071548    0.082757    0.084987    0.092720    0.105275
     0.107461    0.116153    0.117311    0.123522    0.150050    0.152987
     0.228675    0.250000    0.250000    0.260226    0.290441    0.315074
     0.325321    0.336225    0.336770    0.343688    0.348522    0.764817
     0.772716    0.789494    0.817855

 Minimum Search - Taking Simple RFO Step
 Searching for Lamda that Minimizes Along All modes
 Value Taken    Lamda =  -0.02119714
 Calculated Step too Large.  Step scaled by  0.573749
 Step Taken.  Stepsize is  0.300000

                             Maximum     Tolerance    Cnvgd?
         Gradient           0.033397      0.000300      NO
         Displacement       0.155763      0.001200      NO
         Energy change     *********      0.000001      NO


 New Cartesian Coordinates Obtained by Inverse Iteration

 Displacement from previous Coordinates is:  0.582491
 ----------------------------------------------------------------
             Standard Nuclear Orientation (Angstroms)
    I     Atom           X                Y                Z
 ----------------------------------------------------------------
    1      C       1.8375697769    -0.0251730391     0.5846743996
    2      O       2.2812464006     0.5879212839    -0.4212956270
    3      O       2.3502128118    -0.0070001365     1.7463637550
    4      C       0.4545322312    -0.8518808195     0.5966645159
    5      C      -0.0734275859    -0.8064877599    -1.4013725381
    6      O       0.5011078979    -1.9989957728     1.1210958218
    7      C      -0.8862059875    -0.1791951631     0.5234111462
    8      O      -1.9458942509    -0.7850693953     0.8444521492
    9      C      -1.0256111394     1.3520771694     0.3659085526
   10      H      -0.7274340899     1.7500872119    -0.6109540875
   11      H      -0.4272347571     1.8681217088     1.1313340229
   12      H      -2.0876998094     1.5767484050     0.5347037343
   13      H      -0.5789603938    -1.7689031840    -1.5205589323
   14      H       0.9471177143    -0.8054306267    -1.7959224196
   15      H      -0.6419529979    -0.0155551166    -1.9181829353
 ----------------------------------------------------------------
 Nuclear Repulsion Energy =   445.7117421738 hartrees
 There are       35 alpha and       35 beta electrons







































Eigenvalues after right structure
 -0.0287565 -0.0000000 -0.0000000 -0.0000000 -0.0000000 0.0000000 0.0000518 0.0019253 0.0034137 0.0108730 0.0128670 0.0177031 0.0272056 0.0297768 0.0378416 0.0510922 0.0556180 0.0662599 0.0819353 0.0820743 0.0978578 0.1227223 0.1284133 0.1363461 0.1408156 0.1507082 0.1707418 0.1919015 0.2178727 0.2498150 0.2854237 0.3087239 0.3237213 0.5255050 0.7317476 0.7485251 0.9129262 0.9366439 0.9531672 0.9983573 1.0484843 1.3507040 1.7768074 1.8547426 2.1798801
Archival summary:
1\1\bt2600-16\JobtypUnspecified\ProcedureUnspecified\6-31+G*\456(2-,1)\emavera\MonMay118:07:572017MonMay118:07:572017\0\\#,JobtypUnspecified,ProcedureUnspecified,6-31+G*,\\-2,1\C\O,1,1.26217\C,1,1.50182,2,117.406\O,3,1.26218,1,121.474,2,7.13586,0\C,3,1.54565,1,121.954,2,-158.839,0\H,5,1.09617,3,115.213,1,-70.0284,0\H,5,1.09864,3,105.91,1,169.409,0\H,5,1.10011,3,110.167,1,51.8601,0\C,1,1.61133,2,115.958,3,-157.523,0\O,9,1.25885,1,123.94,2,-133.905,0\O,9,1.2699,1,110.306,2,50.7185,0\C,1,2.06711,2,115.531,3,83.7931,0\H,12,1.09362,1,101.776,2,-20.8668,0\H,12,1.09416,1,96.335,2,94.3952,0\H,12,1.10267,1,126.903,2,-147.25,0\\\@

 Total job time:  19625.66s(wall), 16357.34s(cpu) 
 Mon May  1 18:07:57 2017

        *************************************************************
        *                                                           *
        *  Thank you very much for using Q-Chem.  Have a nice day.  *
        *                                                           *
        *************************************************************


0 sent ACK to 0 
now end server 0 ... 
cleanup process ... done
