15
image #: 1 Energy = -495.03649
C 1.66082   0.06267   0.48360   
O 2.57814   0.09477   -0.38828  
O 1.65476   0.68800   1.59060   
C 0.38556   -0.88799  0.20349   
C 0.07223   -0.85792  -1.35884  
O 0.55538   -2.14256  0.62337   
C -0.84424  -0.13902  0.82639   
O -1.70007  -0.66227  1.53560   
C -1.05110  1.35004   0.46762   
H -0.23722  1.76602   -0.13049  
H -1.12301  1.91946   1.40216   
H -2.00431  1.45095   -0.07683  
H -0.78166  -1.52658  -1.54892  
H 0.96977   -1.25570  -1.84323  
H -0.13499  0.14010   -1.78627  
15
image #: 2 Energy = -495.02860
C 1.71284   0.03577   0.51601   
O 2.60268   0.14287   -0.39655  
O 1.77358   0.55435   1.66262   
C 0.41204   -0.88523  0.27650   
C 0.04037   -0.84256  -1.36545  
O 0.57725   -2.10437  0.78599   
C -0.85879  -0.16492  0.77059   
O -1.74497  -0.69694  1.37972   
C -1.05826  1.34501   0.42478   
H -0.33424  1.78908   -0.26351  
H -1.00093  1.91342   1.36664   
H -2.06406  1.46301   0.01367   
H -0.75182  -1.57569  -1.53866  
H 0.95737   -1.14091  -1.85227  
H -0.27674  0.13029   -1.84308  
15
image #: 3 Energy = -495.01738
C 1.76340   0.01075   0.52874   
O 2.60506   0.21139   -0.40400  
O 1.90125   0.40936   1.72039   
C 0.43135   -0.87983  0.34683   
C 0.00731   -0.82088  -1.37339  
O 0.57708   -2.05762  0.92302   
C -0.85037  -0.16736  0.70052   
O -1.80649  -0.74347  1.25291   
C -1.06121  1.34135   0.39441   
H -0.44401  1.79990   -0.38416  
H -0.86824  1.91064   1.31740   
H -2.11391  1.48025   0.13000   
H -0.71050  -1.62515  -1.53322  
H 0.95298   -1.03108  -1.85880  
H -0.40134  0.10108   -1.88222  
15
image #: 4 Energy = -495.00791
C 1.81764   -0.00499  0.54698   
O 2.57061   0.29822   -0.41860  
O 2.04211   0.24689   1.76601   
C 0.45668   -0.86847  0.41846   
C -0.02678  -0.79966  -1.38556  
O 0.55506   -2.00487  1.01299   
C -0.86779  -0.15771  0.65203   
O -1.85150  -0.77028  1.11827   
C -1.06174  1.34242   0.37633   
H -0.56480  1.79464   -0.49385  
H -0.72919  1.90594   1.25197   
H -2.15273  1.49993   0.26831   
H -0.66437  -1.67920  -1.52953  
H 0.95981   -0.93202  -1.85930  
H -0.50170  0.05276   -1.89219  
15
image #: 5 Energy = -495.00055
C 1.84767   -0.03045  0.56681   
O 2.52365   0.41123   -0.42244  
O 2.20554   0.06382   1.77181   
C 0.46981   -0.83498  0.49514   
C -0.04271  -0.79514  -1.39536  
O 0.52244   -1.97285  1.09880   
C -0.87795  -0.15685  0.58828   
O -1.89124  -0.78651  0.99780   
C -1.07605  1.35131   0.35970   
H -0.69447  1.77955   -0.57743  
H -0.60002  1.90976   1.17865   
H -2.15924  1.51828   0.41213   
H -0.61346  -1.71991  -1.52460  
H 0.95321   -0.84460  -1.84481  
H -0.58708  0.01880   -1.90504  
15
image #: 6 Energy = -494.99627
C 1.88678   -0.04990  0.56997   
O 2.44357   0.52588   -0.39487  
O 2.38745   -0.14062  1.73287   
C 0.46794   -0.81862  0.58699   
C -0.07157  -0.78455  -1.39961  
O 0.48845   -1.93007  1.18446   
C -0.87978  -0.16092  0.51887   
O -1.91634  -0.79322  0.88074   
C -1.08002  1.36157   0.34912   
H -0.81735  1.76662   -0.63447  
H -0.49647  1.91106   1.10254   
H -2.15112  1.53140   0.53649   
H -0.56999  -1.74661  -1.51531  
H 0.94130   -0.77398  -1.81260  
H -0.65548  -0.00678  -1.92487  
15
image #: 7 Energy = -494.99872
C 1.92070   -0.08393  0.60323   
O 2.35075   0.63616   -0.36188  
O 2.56983   -0.35112  1.63855   
C 0.47183   -0.79343  0.68851   
C -0.11776  -0.75950  -1.40029  
O 0.45832   -1.89010  1.27995   
C -0.87361  -0.16435  0.43834   
O -1.93303  -0.79951  0.76851   
C -1.07489  1.36708   0.34147   
H -0.91811  1.76252   -0.67161  
H -0.41964  1.91124   1.03365   
H -2.13175  1.53351   0.62914   
H -0.54347  -1.76361  -1.50036  
H 0.92343   -0.71568  -1.76117  
H -0.70977  -0.02889  -1.94995  
15
image #: 8 Energy = -495.01007
C 1.95342   -0.10668  0.62770   
O 2.23191   0.70445   -0.30417  
O 2.74664   -0.53654  1.52880   
C 0.48864   -0.75681  0.81429   
C -0.18672  -0.73091  -1.39479  
O 0.44284   -1.85835  1.37661   
C -0.84507  -0.18173  0.33621   
O -1.93322  -0.80956  0.64683   
C -1.06344  1.36581   0.32422   
H -0.98511  1.77544   -0.69206  
H -0.35896  1.90831   0.97899   
H -2.09267  1.51917   0.68677   
H -0.54644  -1.76506  -1.47732  
H 0.88020   -0.66128  -1.67950  
H -0.76780  -0.04019  -1.99314  
15
image #: 9 Energy = -495.02451
C 1.99609   -0.13558  0.64722   
O 2.15796   0.71136   -0.28429  
O 2.82995   -0.56373  1.48080   
C 0.51558   -0.75776  0.88079   
C -0.27369  -0.69174  -1.35020  
O 0.45510   -1.83764  1.46278   
C -0.78689  -0.21335  0.21597   
O -1.90912  -0.82902  0.56758   
C -1.03306  1.35907   0.30133   
H -0.96373  1.82269   -0.69382  
H -0.34255  1.88361   0.98673   
H -2.07245  1.48095   0.66175   
H -0.61185  -1.73158  -1.45754  
H 0.80503   -0.64293  -1.59174  
H -0.80554  -0.03639  -2.04614  
15
image #: 10 Energy = -495.02363
C 1.99731   -0.17076  0.61563   
O 2.18751   0.79068   -0.18581  
O 2.85024   -0.79964  1.29415   
C 0.49737   -0.73249  0.91054   
C -0.25609  -0.67229  -1.34805  
O 0.40947   -1.73850  1.60423   
C -0.78862  -0.21137  0.20582   
O -1.90949  -0.83897  0.54998   
C -1.05144  1.35821   0.30620   
H -1.08181  1.79984   -0.70144  
H -0.31156  1.90464   0.91912   
H -2.05988  1.47406   0.74906   
H -0.54224  -1.72594  -1.46711  
H 0.81798   -0.59579  -1.60290  
H -0.80951  -0.05109  -2.06021  
15
image #: 11 Energy = -495.02330
C 1.98516   -0.19991  0.60167   
O 2.23423   0.85599   -0.06104  
O 2.82049   -1.01164  1.07739   
C 0.47991   -0.70333  0.93993   
C -0.23556  -0.65362  -1.34764  
O 0.37248   -1.63674  1.73220   
C -0.79054  -0.21431  0.19824   
O -1.90845  -0.85003  0.53894   
C -1.06297  1.35252   0.30981   
H -1.20981  1.76521   -0.70057  
H -0.27764  1.92800   0.82638   
H -2.02364  1.47045   0.85289   
H -0.45951  -1.72407  -1.47601  
H 0.83118   -0.53471  -1.62160  
H -0.81957  -0.06606  -2.07179  
15
image #: 12 Energy = -495.02231
C 1.96157   -0.22627  0.59139   
O 2.30529   0.89385   0.09728   
O 2.74354   -1.17854  0.85739   
C 0.46322   -0.68171  0.95097   
C -0.21182  -0.63328  -1.35846  
O 0.33960   -1.51660  1.85285   
C -0.79840  -0.22326  0.20246   
O -1.91867  -0.87397  0.54104   
C -1.07404  1.33532   0.30923   
H -1.35382  1.71876   -0.68556  
H -0.24608  1.95520   0.69670   
H -1.94342  1.46892   0.97411   
H -0.35814  -1.71672  -1.48505  
H 0.84870   -0.44786  -1.65506  
H -0.83151  -0.08683  -2.07248  
15
image #: 13 Energy = -495.02061
C 1.93900   -0.25727  0.57929   
O 2.37404   0.89075   0.27426   
O 2.66070   -1.28328  0.67315   
C 0.44233   -0.65859  0.94902   
C -0.16850  -0.61171  -1.36407  
O 0.31134   -1.38221  1.96019   
C -0.83491  -0.25715  0.19466   
O -1.93021  -0.90793  0.54827   
C -1.06357  1.31209   0.29987   
H -1.49733  1.66566   -0.64803  
H -0.22526  1.97938   0.53627   
H -1.81908  1.46698   1.09477   
H -0.25586  -1.69773  -1.49161  
H 0.85085   -0.33292  -1.69135  
H -0.85622  -0.11024  -2.06697  
15
image #: 14 Energy = -495.03330
C 1.93293   -0.30027  0.58756   
O 2.38439   0.87182   0.43109   
O 2.61754   -1.36061  0.52376   
C 0.42841   -0.62103  0.98447   
C -0.18768  -0.58011  -1.36736  
O 0.29466   -1.24204  2.06778   
C -0.80857  -0.27604  0.16159   
O -1.92659  -0.94353  0.50133   
C -1.05665  1.29598   0.28872   
H -1.62596  1.61592   -0.59499  
H -0.19078  1.97020   0.37471   
H -1.67552  1.45669   1.18008   
H -0.17203  -1.67307  -1.49727  
H 0.82629   -0.20647  -1.68376  
H -0.89986  -0.14426  -2.06562  
15
image #: 15 Energy = -495.04502
C 1.92394   -0.34745  0.61220   
O 2.38842   0.83117   0.56618   
O 2.57600   -1.40222  0.40691   
C 0.43416   -0.61113  1.04483   
C -0.19669  -0.54829  -1.37321  
O 0.27092   -1.06561  2.14944   
C -0.79781  -0.28529  0.13537   
O -1.90448  -0.98489  0.43428   
C -1.03830  1.27421   0.27267   
H -1.73052  1.56856   -0.52733  
H -0.16074  1.93808   0.21998   
H -1.52486  1.44443   1.23786   
H -0.08888  -1.63503  -1.50888  
H 0.77154   -0.07286  -1.66143  
H -0.95761  -0.18210  -2.06245  
15
image #: 16 Energy = -495.05328
C 1.93040   -0.39404  0.64859   
O 2.37110   0.79268   0.68080   
O 2.54493   -1.44537  0.31389   
C 0.45122   -0.57506  1.09908   
C -0.22291  -0.51385  -1.37413  
O 0.23358   -0.89129  2.26714   
C -0.75496  -0.30040  0.08713   
O -1.85956  -1.02089  0.33053   
C -1.01564  1.25279   0.25408   
H -1.81290  1.52772   -0.45549  
H -0.12419  1.87343   0.07832   
H -1.38522  1.43056   1.27260   
H -0.00580  -1.57834  -1.52762  
H 0.68173   0.06601   -1.61247  
H -1.03178  -0.22393  -2.06244  
