
Running Job 1 of 2 ts_no_solvent01.qcin
qchem ts_no_solvent01.qcin_56640.0 /tmp/ts_no_solvent01.qcin/ 1
/programs/x86_64/lib/qchem-4.3.2/bin/mpi/mpirun_qchem -machinefile /var/spool/torque/aux//114848.vali -np 1 /programs/x86_64/lib/qchem-4.3.2/exe/qcprog.exe ts_no_solvent01.qcin_56640.0 /tmp/ts_no_solvent01.qcin/

Process 0 of 1 is on bt2600-16.csail.mit.edu - thread support 0
initial socket setup ...start
initial socket setup ...done 
now start server 0 ... 

cmd = ssh thor /programs/x86_64/lib/qchem-4.3.2/bin/get_hostid 1796180009 > /tmp/ts_no_solvent01.qcin/lic.dat
                  Welcome to Q-Chem
     A Quantum Leap Into The Future Of Chemistry


 Q-Chem 4.3, Q-Chem, Inc., Pleasanton, CA (2015)

 Y. Shao,  Z. Gan,  E. Epifanovsky,  A. T. B. Gilbert,  M. Wormit,  
 J. Kussmann,  A. W. Lange,  A. Behn,  J. Deng,  X. Feng,  D. Ghosh,  
 M. Goldey,  P. R. Horn,  L. D. Jacobson,  I. Kaliman,  R. Z. Khaliullin,  
 T. Kus,  A. Landau,  J. Liu,  E. I. Proynov,  Y. M. Rhee,  R. M. Richard,  
 M. A. Rohrdanz,  R. P. Steele,  E. J. Sundstrom,  H. L. Woodcock III,  
 P. M. Zimmerman,  D. Zuev,  B. Albrecht,  E. Alguire,  B. Austin,  
 S. A. Baeppler,  G. J. O. Beran,  Y. A. Bernard,  E. Berquist,  
 K. Brandhorst,  K. B. Bravaya,  S. T. Brown,  D. Casanova,  C.-M. Chang,  
 Y. Chen,  S. H. Chien,  K. D. Closser,  D. L. Crittenden,  M. Diedenhofen,  
 R. A. DiStasio Jr.,  H. Do,  A. D. Dutoi,  R. G. Edgar,  P.-T. Fang,  
 S. Fatehi,  Q. Feng,  L. Fusti-Molnar,  A. Ghysels,  
 A. Golubeva-Zadorozhnaya,  J. Gomes,  A. Gunina,  M. W. D. Hanson-Heine,  
 P. H. P. Harbach,  A. W. Hauser,  E. G. Hohenstein,  Z. C. Holden,  K. Hui,  
 T.-C. Jagau,  H. Ji,  B. Kaduk,  K. Khistyaev,  Jaehoon Kim,  Jihan Kim,  
 R. A. King,  P. Klunzinger,  D. Kosenkov,  T. Kowalczyk,  C. M. Krauter,  
 K. U. Lao,  A. Laurent,  K. V. Lawler,  S. Lehtola,  S. V. Levchenko,  
 C. Y. Lin,  Y.-S. Lin,  F. Liu,  E. Livshits,  R. C. Lochan,  A. Luenser,  
 P. Manohar,  S. F. Manzer,  S.-P. Mao,  N. Mardirossian,  A. V. Marenich,  
 L. A. Martinez-Martinez,  S. A. Maurer,  N. J. Mayhall,  K. Nanda,  
 C. M. Oana,  R. Olivares-Amaya,  D. P. O'Neill,  J. A. Parkhill,  
 T. M. Perrine,  R. Peverati,  P. A. Pieniazek,  F. Plasser,  A. Prociuk,  
 D. R. Rehn,  E. Rosta,  N. J. Russ,  N. Sergueev,  S. M. Sharada,  
 S. Sharma,  D. W. Small,  A. Sodt,  T. Stauch,  T. Stein,  D. Stuck,  
 Y.-C. Su,  A. J. W. Thom,  T. Tsuchimochi,  L. Vogt,  O. Vydrov,  T. Wang,  
 M. A. Watson,  J. Wenzel,  A. White,  C. F. Williams,  V. Vanovschi,  
 S. Yeganeh,  S. R. Yost,  Z.-Q. You,  I. Y. Zhang,  X. Zhang,  Y. Zhao,  
 B. R. Brooks,  G. K. L. Chan,  D. M. Chipman,  C. J. Cramer,  
 W. A. Goddard III,  M. S. Gordon,  W. J. Hehre,  A. Klamt,  
 H. F. Schaefer III,  M. W. Schmidt,  C. D. Sherrill,  D. G. Truhlar,  
 A. Warshel,  X. Xu,  A. Aspuru-Guzik,  R. Baer,  A. T. Bell,  N. A. Besley,  
 J.-D. Chai,  A. Dreuw,  B. D. Dunietz,  T. R. Furlani,  S. R. Gwaltney,  
 C.-P. Hsu,  Y. Jung,  J. Kong,  D. S. Lambrecht,  W. Liang,  C. Ochsenfeld,  
 V. A. Rassolov,  L. V. Slipchenko,  J. E. Subotnik,  T. Van Voorhis,  
 J. M. Herbert,  A. I. Krylov,  P. M. W. Gill,  M. Head-Gordon

 Contributors to earlier versions of Q-Chem not listed above: 
 R. D. Adamson,  J. Baker,  E. F. C. Byrd,  A. K. Chakraborty,  C.-L. Cheng,  
 H. Dachsel,  R. J. Doerksen,  G. Hawkins,  A. Heyden,  S. Hirata,  
 G. Kedziora,  F. J. Keil,  C. Kelley,  P. P. Korambath,  W. Kurlancheek,  
 A. M. Lee,  M. S. Lee,  D. Liotard,  I. Lotan,  P. E. Maslen,  N. Nair,  
 D. Neuhauser,  R. Olson,  B. Peters,  J. Ritchie,  N. E. Schultz,  
 N. Shenvi,  A. C. Simmonett,  K. S. Thanthiriwatte,  Q. Wu,  W. Zhang

 Please cite Q-Chem as follows:
 Y. Shao et al., Mol. Phys. 113, 184-215 (2015)
 DOI: 10.1080/00268976.2014.952696

 Q-Chem 4.3.0 for Intel X86 Linux

 Parts of Q-Chem use Armadillo 5.200.1 (Boston Tea Smuggler).
 http://arma.sourceforge.net/

 Q-Chem begins on Tue May  9 12:22:42 2017  

Host: 
0

     Scratch files written to /tmp/ts_no_solvent01.qcin//
 Oct1215 13750_ 19228  19214 4150   
 Parallel job on  1  processors
Processing $rem in /programs/x86_64/lib/qchem-4.3.2/config/preferences.
 MEM_TOTAL  2000 

Checking the input file for inconsistencies... 	...done.

--------------------------------------------------------------
User input:
--------------------------------------------------------------
$comment
Title
$end

$molecule
-2 1
C         1.887        -0.045          0.569
O         2.441         0.530         -0.396
O         2.389        -0.135          1.731
C         0.469        -0.816          0.588
O        -0.070        -0.786         -1.399
C         0.491        -1.927          1.187
O        -0.879        -0.161          0.518
C        -1.915        -0.795          0.879
H        -1.081         1.360          0.349
H        -0.825         1.763         -0.636
H        -0.492         1.910          1.097
C        -2.151         1.530          0.543
H        -0.567        -1.749         -1.512
H         0.941        -0.774         -1.812
H        -0.656        -0.010         -1.924
$end

$molecule
READ
$end

$rem
jobtype          TS
exchange         b3lyp
basis            6-31+G(d)
geom_opt_maxcyc  100
$end

--------------------------------------------------------------
 ----------------------------------------------------------------
             Standard Nuclear Orientation (Angstroms)
    I     Atom           X                Y                Z
 ----------------------------------------------------------------
    1      C       1.5755726512    -0.0674276096     0.2999052130
    2      O       1.9855969083     0.9983217312     0.8145161836
    3      O       2.1930195104    -1.1743778373     0.3612938880
    4      C       0.2329177805    -0.3038470424    -0.5643341925
    5      O      -0.4960317343     1.6108603524    -0.7695613768
    6      C       0.4022520438    -0.9962682947    -1.6062001707
    7      O      -1.1639988875    -0.3146314756    -0.0170348970
    8      C      -2.1057351756    -0.8376025862    -0.6842732211
    9      H      -1.5034900622    -0.0293238679     1.4615290384
   10      H      -1.3771429065     1.0095927416     1.7822449172
   11      H      -0.8913637274    -0.6587737008     2.1233592719
   12      C      -2.5599801017    -0.3170061611     1.5733489593
   13      H      -0.9222510922     1.5832428266    -1.7719192626
   14      H       0.4660944857     2.1259354585    -0.7266105697
   15      H      -1.1906962627     2.1408545395    -0.0929933059
 ----------------------------------------------------------------
 Molecular Point Group                 C1    NOp =  1
 Largest Abelian Subgroup              C1    NOp =  1
 Nuclear Repulsion Energy =   438.0573087495 hartrees
 There are       35 alpha and       35 beta electrons
 Requested basis set is 6-31+G(d)
 There are 57 shells and 183 basis functions

 Total QAlloc Memory Limit   2000 MB
 Mega-Array Size        61 MB
 MEM_STATIC part        62 MB
 A cutoff of  1.0D-11 yielded   1525 shell pairs
 There are     16282 function pairs
 
 -------------------------------------------------------
 OpenMP Integral Computing Module                       
 Release: version 1.0, May 2013, Q-Chem Inc. Pittsburgh 
 -------------------------------------------------------
 Integral Job Info:
 Integral job number is                      11
 Integral operator is                         1
 short-range coefficients                     0
 long-range coefficients              100000000
 Omega coefficients                           0
 if combine SR and LR in K                    0
 Integral screening is                        0
 Integral computing path is                   2
 max size of driver memory is            800000
 size of driver memory is                593474
 size of scratch memory is              2260544
 max col of scratch BK array               1296
 max len of scratch array in speh3          155
 max len of scratch index in speh4           18
 max int batch size is                      520
 min int batch size is                       52
 fixed nKL is                                52
 max L of basis functions is                  2
 order of int derivative is                   0
 number of shells is                         57
 number of basis is                         183
 number of cartesian basis is               183
 number of contracted shell pairs          1525
 number of primitive shell pairs           5216
 maxK2 (contraction) of shell pair           36
 max number of K2 of shell pair               1
 max number of CS2 of shell pair            182
 max number of PS2 of shell pair           1092
 mem total for path MDJ                   43170
 -------------------------------------------------------
 Smallest overlap matrix eigenvalue = 1.76E-05

 Scale SEOQF with 1.000000e-01/1.000000e-01/1.000000e-01

 Standard Electronic Orientation quadrupole field applied
 Nucleus-field energy     =     0.0000000043 hartrees
 Guess from superposition of atomic densities
 Warning:  Energy on first SCF cycle will be non-variational
 A restricted hybrid HF-DFT SCF calculation will be
 performed using Pulay DIIS extrapolation
 Exchange:     0.2000 Hartree-Fock + 0.0800 Slater + 0.7200 B88
 Correlation:  0.1900 VWN1RPA + 0.8100 LYP
 Using SG-1 standard quadrature grid
 SCF converges when DIIS error is below 1.0E-08
 CPU 0.00 s  wall 0.00 s
 Inaccurate integrated density:
   Number of electrons =    70
   Numerical integral  =    68.000072485876
   Relative error      =    -2.8570393059 %
 CPU 5.83 s  wall 5.83 s
 ---------------------------------------
  Cycle       Energy         DIIS Error
 ---------------------------------------
    1    -495.5393519313      4.63E-02
 CPU 0.00 s  wall 0.00 s
 CPU 6.50 s  wall 6.50 s
    2    -493.3409396154      1.16E-02
 CPU 0.00 s  wall 0.00 s
 CPU 6.56 s  wall 6.56 s
    3    -480.3028127456      3.93E-02
 CPU 0.00 s  wall 0.00 s
 CPU 6.54 s  wall 6.54 s
    4    -493.1622861726      1.34E-02
 CPU 0.00 s  wall 0.00 s
 CPU 6.55 s  wall 6.56 s
    5    -493.7580618293      8.05E-03
 CPU 0.00 s  wall 0.00 s
 CPU 6.53 s  wall 6.53 s
    6    -493.7759438025      7.06E-03
 CPU 0.00 s  wall 0.00 s
 CPU 6.50 s  wall 6.50 s
    7    -494.0806094281      3.01E-03
 CPU 0.00 s  wall 0.00 s
 CPU 6.47 s  wall 6.47 s
    8    -494.0446393360      3.75E-03
 CPU 0.00 s  wall 0.00 s
 CPU 6.47 s  wall 6.47 s
    9    -494.1160321172      2.22E-03
 CPU 0.00 s  wall 0.00 s
 CPU 6.43 s  wall 6.43 s
   10    -494.1437902146      5.06E-04
 CPU 0.00 s  wall 0.00 s
 CPU 6.39 s  wall 6.39 s
   11    -494.1452384127      2.90E-04
 CPU 0.00 s  wall 0.00 s
 CPU 6.35 s  wall 6.35 s
   12    -494.1456111436      1.07E-04
 CPU 0.00 s  wall 0.00 s
 CPU 6.30 s  wall 6.31 s
   13    -494.1456726199      5.30E-05
 CPU 0.00 s  wall 0.00 s
 CPU 6.30 s  wall 6.31 s
   14    -494.1456893982      4.98E-05
 CPU 0.00 s  wall 0.00 s
 CPU 6.32 s  wall 6.32 s
   15    -494.1457040916      3.78E-05
 CPU 0.00 s  wall 0.00 s
 CPU 6.32 s  wall 6.33 s
   16    -494.1457170972      2.85E-05
 CPU 0.00 s  wall 0.00 s
 CPU 6.20 s  wall 6.21 s
   17    -494.1457224540      1.68E-05
 CPU 0.00 s  wall 0.00 s
 CPU 6.19 s  wall 6.20 s
   18    -494.1457243910      1.07E-05
 CPU 0.00 s  wall 0.00 s
 CPU 6.19 s  wall 6.20 s
   19    -494.1457255822      4.07E-06
 CPU 0.00 s  wall 0.00 s
 CPU 6.16 s  wall 6.16 s
   20    -494.1457257921      2.43E-06
 CPU 0.00 s  wall 0.00 s
 CPU 6.06 s  wall 6.06 s
   21    -494.1457258518      1.00E-06
 CPU 0.00 s  wall 0.00 s
 CPU 5.92 s  wall 5.93 s
   22    -494.1457258611      3.48E-07
 CPU 0.00 s  wall 0.00 s
 CPU 5.93 s  wall 5.94 s
   23    -494.1457258667      3.70E-07
 CPU 0.00 s  wall 0.00 s
 CPU 5.97 s  wall 5.97 s
   24    -494.1457258715      1.20E-07
 CPU 0.00 s  wall 0.00 s
 CPU 5.07 s  wall 5.07 s
   25    -494.1457258708      6.67E-08
 CPU 0.00 s  wall 0.00 s
 CPU 4.70 s  wall 4.70 s
   26    -494.1457258706      1.82E-08
 CPU 0.00 s  wall 0.00 s
 CPU 4.51 s  wall 4.51 s
   27    -494.1457258696      8.28E-09 Convergence criterion met
 ---------------------------------------
 SCF time:  CPU 409.84 s  wall 410.16 s
 SCF   energy in the final basis set = -494.1457258696
 Total energy in the final basis set = -494.1457258696
 
 --------------------------------------------------------------
 
                    Orbital Energies (a.u.)
 --------------------------------------------------------------
 
 Alpha MOs
 -- Occupied --
-19.043 -19.003 -18.845 -18.819 -10.024 -10.017  -9.943  -9.942
 -9.918  -0.889  -0.856  -0.759  -0.666  -0.514  -0.413  -0.384
 -0.360  -0.340  -0.276  -0.253  -0.198  -0.172  -0.156  -0.132
 -0.120  -0.098  -0.061  -0.022   0.000   0.013   0.021   0.043
  0.057   0.105   0.125
 -- Virtual --
  0.166   0.178   0.187   0.245   0.247   0.249   0.261   0.263
  0.268   0.279   0.284   0.293   0.299   0.313   0.317   0.327
  0.331   0.336   0.338   0.342   0.355   0.370   0.376   0.385
  0.394   0.414   0.419   0.423   0.445   0.453   0.469   0.476
  0.488   0.505   0.519   0.538   0.551   0.559   0.565   0.576
  0.581   0.588   0.594   0.607   0.623   0.649   0.655   0.701
  0.721   0.746   0.764   0.802   0.937   0.952   0.971   0.996
  1.009   1.014   1.039   1.044   1.051   1.060   1.080   1.111
  1.137   1.146   1.172   1.196   1.215   1.224   1.259   1.279
  1.292   1.355   1.389   1.399   1.431   1.442   1.479   1.494
  1.529   1.554   1.569   1.582   1.605   1.619   1.628   1.635
  1.667   1.695   1.714   1.766   1.794   1.799   1.816   1.861
  1.891   1.941   1.964   1.979   1.988   2.018   2.034   2.047
  2.078   2.091   2.126   2.139   2.148   2.163   2.181   2.208
  2.259   2.269   2.294   2.336   2.392   2.402   2.456   2.506
  2.548   2.593   2.608   2.632   2.648   2.690   2.700   2.710
  2.769   2.867   2.966   2.983   3.053   3.132   3.206   3.315
  3.352   3.400   3.453   4.323   4.442   4.469   4.557   4.590
  4.644   4.701   4.751   4.963
 --------------------------------------------------------------
 
          Ground-State Mulliken Net Atomic Charges

     Atom                 Charge (a.u.)
  ----------------------------------------
      1 C                     0.260924
      2 O                    -0.466126
      3 O                    -0.558781
      4 C                    -1.538876
      5 O                    -0.224852
      6 C                    -0.518920
      7 O                     0.398760
      8 C                    -0.096446
      9 H                    -0.005343
     10 H                     0.046461
     11 H                     0.018765
     12 C                    -0.523869
     13 H                     0.386577
     14 H                     0.430073
     15 H                     0.391655
  ----------------------------------------
  Sum of atomic charges =    -2.000000

 -----------------------------------------------------------------
                    Cartesian Multipole Moments
 -----------------------------------------------------------------
    Charge (ESU x 10^10)
                -9.6064
    Dipole Moment (Debye)
         X       1.9564      Y       4.4155      Z      -6.4546
       Tot       8.0614
    Quadrupole Moments (Debye-Ang)
        XX    -121.2164     XY       1.1278     YY     -81.9704
        XZ      11.4981     YZ      -8.1146     ZZ     -99.7000
    Octopole Moments (Debye-Ang^2)
       XXX      92.0606    XXY      17.5597    XYY      11.1772
       YYY      10.0259    XXZ     -63.4621    XYZ      -4.5130
       YYZ      -7.6289    XZZ      52.5739    YZZ      18.5180
       ZZZ     -35.2825
    Hexadecapole Moments (Debye-Ang^3)
      XXXX   -1624.8844   XXXY     -13.4963   XXYY    -346.8534
      XYYY      16.6576   YYYY    -537.6923   XXXZ     161.6061
      XXYZ      -6.3933   XYYZ      21.7798   YYYZ     -26.8613
      XXZZ    -441.8560   XYZZ     -13.6434   YYZZ    -230.9817
      XZZZ     170.8683   YZZZ     -32.0018   ZZZZ    -794.7664
 -----------------------------------------------------------------
 Calculating analytic gradient of the SCF energy
 CPU 0.00 s  wall 0.00 s
 CPU 8.82 s  wall 8.82 s
 Gradient of SCF Energy
            1           2           3           4           5           6
    1  -0.0092079   0.0239359   0.0003970  -0.0918492  -0.0031291  -0.0151499
    2   0.0368044  -0.0206885  -0.0054080   0.0182143  -0.0955925   0.0212998
    3  -0.0099010   0.0179951   0.0004097  -0.0199571   0.0203710   0.0534790
            7           8           9          10          11          12
    1   0.0348895   0.0032531   0.0007412   0.0236867   0.0140404   0.0125766
    2   0.0438362  -0.0137157  -0.0059296  -0.0327728   0.0289589  -0.0037892
    3   0.0733103  -0.0505717   0.0001999  -0.0010024  -0.0201945  -0.0394587
           13          14          15
    1  -0.0167001   0.0348236  -0.0123077
    2  -0.0037166   0.0209404   0.0115587
    3  -0.0245196  -0.0005808   0.0004209
 Max gradient component =       9.559E-02
 RMS gradient           =       3.131E-02
 Gradient time:  CPU 86.78 s  wall 86.94 s
 Geometry Optimization Parameters
   NAtoms,    NIC,     NZ,  NCons,   NDum,   NFix, NCnnct, MaxDiis
       15     170       0       0       0       0       0       0


** GEOMETRY OPTIMIZATION IN DELOCALIZED INTERNAL COORDINATES **
   Searching for a Transition State

   Optimization Cycle:   1

                       Coordinates (Angstroms)
     ATOM                X               Y               Z
      1  C         1.5755726512   -0.0674276096    0.2999052130
      2  O         1.9855969083    0.9983217312    0.8145161836
      3  O         2.1930195104   -1.1743778373    0.3612938880
      4  C         0.2329177805   -0.3038470424   -0.5643341925
      5  O        -0.4960317343    1.6108603524   -0.7695613768
      6  C         0.4022520438   -0.9962682947   -1.6062001707
      7  O        -1.1639988875   -0.3146314756   -0.0170348970
      8  C        -2.1057351756   -0.8376025862   -0.6842732211
      9  H        -1.5034900622   -0.0293238679    1.4615290384
     10  H        -1.3771429065    1.0095927416    1.7822449172
     11  H        -0.8913637274   -0.6587737008    2.1233592719
     12  C        -2.5599801017   -0.3170061611    1.5733489593
     13  H        -0.9222510922    1.5832428266   -1.7719192626
     14  H         0.4660944857    2.1259354585   -0.7266105697
     15  H        -1.1906962627    2.1408545395   -0.0929933059
   Point Group: c1    Number of degrees of freedom:    39


   Energy is   -494.145725870


 Attempting to Generate Delocalized Internal Coordinates

 39 Hessian modes will be used to form the next step
  Hessian Eigenvalues:
     0.002000    0.002019    0.004512    0.006776    0.018575    0.022369
     0.023537    0.024303    0.026782    0.029094    0.033879    0.037324
     0.043866    0.044783    0.060618    0.068943    0.076365    0.077936
     0.080446    0.086642    0.092520    0.099414    0.101376    0.102814
     0.111808    0.125292    0.141216    0.187934    0.228425    0.250000
     0.250000    0.286530    0.307580    0.345631    0.348632    0.765954
     0.772214    0.788249    0.823185
**WARNING** Hessian does not have the Desired Local Structure

 Transition State Search - Taking P-RFO Step
 Searching for Lamda that Maximizes Along the Lowest mode
 Value Taken    Lamda =   0.00546262
 Searching for Lamda that Minimizes Along All other modes
 Value Taken    Lamda =  -0.10913757
 Calculated Step too Large.  Step scaled by  0.210036
 Step Taken.  Stepsize is  0.300000

                             Maximum     Tolerance    Cnvgd?
         Gradient           0.085322      0.000300      NO
         Displacement       0.119730      0.001200      NO
         Energy change     *********      0.000001      NO


 New Cartesian Coordinates Obtained by Inverse Iteration

 Displacement from previous Coordinates is:  0.398673
 ----------------------------------------------------------------
             Standard Nuclear Orientation (Angstroms)
    I     Atom           X                Y                Z
 ----------------------------------------------------------------
    1      C       1.5847727405    -0.0809795966     0.2867185070
    2      O       1.9022963510     0.9831418384     0.8666343875
    3      O       2.2903565530    -1.1345253853     0.2559137361
    4      C       0.2511667290    -0.3294144326    -0.5766868825
    5      O      -0.4808424159     1.6109868296    -0.7732235114
    6      C       0.4257890683    -1.0224029934    -1.6259827022
    7      O      -1.1661441361    -0.3276718704    -0.0223251488
    8      C      -2.1204469492    -0.8437792297    -0.6696109595
    9      H      -1.5275973162    -0.0190492853     1.4832693445
   10      H      -1.3937004562     1.0286788753     1.7912964591
   11      H      -0.9309153517    -0.6516441783     2.1619827281
   12      C      -2.5913364344    -0.2909585732     1.5983205648
   13      H      -0.9013919505     1.5923127950    -1.7704936985
   14      H       0.4757318945     2.1150338359    -0.7263983951
   15      H      -1.1729748964     2.1398204448    -0.0961439540
 ----------------------------------------------------------------
 Molecular Point Group                 C1    NOp =  1
 Largest Abelian Subgroup              C1    NOp =  1
 Nuclear Repulsion Energy =   436.1128893463 hartrees
 There are       35 alpha and       35 beta electrons
 Applying Cartesian multipole field
    Component          Value
    ---------          -----
     (2,0,0)        1.00000E-11
     (0,2,0)        2.00000E-11
     (0,0,2)       -3.00000E-11
 Nucleus-field energy     =     0.0000000043 hartrees
 Requested basis set is 6-31+G(d)
 There are 57 shells and 183 basis functions
 A cutoff of  1.0D-11 yielded   1527 shell pairs
 There are     16284 function pairs
 Smallest overlap matrix eigenvalue = 1.76E-05
 Guess MOs from SCF MO coefficient file
 Reading MOs from coefficient file
 Reading MOs from coefficient file
 A restricted hybrid HF-DFT SCF calculation will be
 performed using Pulay DIIS extrapolation
 Exchange:     0.2000 Hartree-Fock + 0.0800 Slater + 0.7200 B88
 Correlation:  0.1900 VWN1RPA + 0.8100 LYP
 Using SG-1 standard quadrature grid
 SCF converges when DIIS error is below 1.0E-08
Geometry optimization detected.  Setting ReadMinima to 0
Setting SaveMinima to 0
 CPU 0.00 s  wall 0.00 s
 CPU 8.29 s  wall 8.29 s
 ---------------------------------------
  Cycle       Energy         DIIS Error
 ---------------------------------------
    1    -494.1575165267      3.17E-03
 CPU 0.00 s  wall 0.00 s
 CPU 6.38 s  wall 6.38 s
    2    -494.1642749865      6.00E-04
 CPU 0.00 s  wall 0.00 s
 CPU 6.40 s  wall 6.40 s
    3    -494.1509888597      1.61E-03
 CPU 0.00 s  wall 0.00 s
 CPU 6.73 s  wall 6.73 s
    4    -494.1633390087      7.17E-04
 CPU 0.00 s  wall 0.00 s
 CPU 6.06 s  wall 6.06 s
    5    -494.1663890566      1.57E-04
 CPU 0.00 s  wall 0.00 s
 CPU 6.29 s  wall 6.29 s
    6    -494.1664668307      1.09E-04
 CPU 0.00 s  wall 0.00 s
 CPU 6.30 s  wall 6.30 s
    7    -494.1665292838      5.00E-05
 CPU 0.00 s  wall 0.00 s
 CPU 6.27 s  wall 6.27 s
    8    -494.1665496713      2.16E-05
 CPU 0.00 s  wall 0.00 s
 CPU 6.22 s  wall 6.23 s
    9    -494.1665546616      1.59E-05
 CPU 0.00 s  wall 0.00 s
 CPU 6.20 s  wall 6.21 s
   10    -494.1665585848      1.09E-05
 CPU 0.00 s  wall 0.00 s
 CPU 6.27 s  wall 6.28 s
   11    -494.1665609374      6.81E-06
 CPU 0.00 s  wall 0.00 s
 CPU 6.21 s  wall 6.22 s
   12    -494.1665616078      2.48E-06
 CPU 0.00 s  wall 0.00 s
 CPU 6.01 s  wall 6.01 s
   13    -494.1665616673      1.43E-06
 CPU 0.00 s  wall 0.00 s
 CPU 6.01 s  wall 6.01 s
   14    -494.1665617052      7.73E-07
 CPU 0.00 s  wall 0.00 s
 CPU 5.95 s  wall 5.95 s
   15    -494.1665617203      4.57E-07
 CPU 0.00 s  wall 0.00 s
 CPU 6.00 s  wall 6.00 s
   16    -494.1665617290      3.07E-07
 CPU 0.00 s  wall 0.00 s
 CPU 5.86 s  wall 5.86 s
   17    -494.1665617300      1.35E-07
 CPU 0.00 s  wall 0.00 s
 CPU 5.83 s  wall 5.83 s
   18    -494.1665617298      5.09E-08
 CPU 0.00 s  wall 0.00 s
 CPU 5.59 s  wall 5.59 s
   19    -494.1665617296      2.78E-08
 CPU 0.00 s  wall 0.00 s
 CPU 5.39 s  wall 5.39 s
   20    -494.1665617305      7.31E-09 Convergence criterion met
 ---------------------------------------
 SCF time:  CPU 307.26 s  wall 307.57 s
 SCF   energy in the final basis set = -494.1665617305
 Total energy in the final basis set = -494.1665617305
 
 --------------------------------------------------------------
 
                    Orbital Energies (a.u.)
 --------------------------------------------------------------
 
 Alpha MOs
 -- Occupied --
-19.044 -19.003 -18.844 -18.820 -10.025 -10.020  -9.943  -9.940
 -9.918  -0.886  -0.858  -0.759  -0.667  -0.510  -0.406  -0.381
 -0.364  -0.342  -0.276  -0.250  -0.199  -0.172  -0.157  -0.133
 -0.121  -0.100  -0.060  -0.022   0.001   0.013   0.022   0.041
  0.053   0.102   0.125
 -- Virtual --
  0.167   0.177   0.187   0.243   0.247   0.248   0.261   0.262
  0.268   0.279   0.284   0.291   0.299   0.312   0.316   0.325
  0.332   0.335   0.337   0.341   0.354   0.369   0.375   0.386
  0.394   0.413   0.419   0.422   0.442   0.454   0.469   0.477
  0.488   0.504   0.521   0.537   0.549   0.558   0.564   0.575
  0.581   0.588   0.593   0.606   0.622   0.646   0.655   0.701
  0.716   0.745   0.762   0.808   0.936   0.951   0.973   0.994
  1.009   1.012   1.040   1.045   1.053   1.063   1.083   1.115
  1.132   1.147   1.174   1.190   1.214   1.223   1.259   1.283
  1.292   1.346   1.379   1.399   1.429   1.440   1.476   1.496
  1.530   1.551   1.568   1.574   1.602   1.623   1.629   1.635
  1.670   1.696   1.709   1.768   1.789   1.801   1.819   1.862
  1.881   1.934   1.958   1.974   1.985   2.015   2.032   2.038
  2.074   2.083   2.123   2.135   2.142   2.158   2.181   2.201
  2.255   2.264   2.287   2.331   2.378   2.400   2.444   2.496
  2.541   2.597   2.613   2.622   2.642   2.683   2.696   2.707
  2.764   2.861   2.958   2.981   3.060   3.122   3.203   3.318
  3.357   3.394   3.453   4.311   4.434   4.459   4.550   4.585
  4.642   4.703   4.754   4.957
 --------------------------------------------------------------
 
          Ground-State Mulliken Net Atomic Charges

     Atom                 Charge (a.u.)
  ----------------------------------------
      1 C                     0.281787
      2 O                    -0.443569
      3 O                    -0.571966
      4 C                    -1.526947
      5 O                    -0.258398
      6 C                    -0.600595
      7 O                     0.418237
      8 C                    -0.062755
      9 H                     0.003805
     10 H                     0.044946
     11 H                     0.014929
     12 C                    -0.528371
     13 H                     0.391567
     14 H                     0.439781
     15 H                     0.397549
  ----------------------------------------
  Sum of atomic charges =    -2.000000

 -----------------------------------------------------------------
                    Cartesian Multipole Moments
 -----------------------------------------------------------------
    Charge (ESU x 10^10)
                -9.6064
    Dipole Moment (Debye)
         X       1.9544      Y       4.3731      Z      -6.5022
       Tot       8.0760
    Quadrupole Moments (Debye-Ang)
        XX    -122.2056     XY       1.9606     YY     -81.3759
        XZ      12.8304     YZ      -8.8570     ZZ    -100.5536
    Octopole Moments (Debye-Ang^2)
       XXX      91.6851    XXY      19.1244    XYY      11.9314
       YYY      10.5413    XXZ     -64.5466    XYZ      -5.7119
       YYZ      -7.0495    XZZ      54.3164    YZZ      18.4340
       ZZZ     -36.6835
    Hexadecapole Moments (Debye-Ang^3)
      XXXX   -1660.9369   XXXY      -0.1930   XXYY    -348.0959
      XYYY      22.0051   YYYY    -533.6568   XXXZ     184.1054
      XXYZ     -10.9811   XYYZ      26.9764   YYYZ     -34.5357
      XXZZ    -453.2259   XYZZ     -11.7381   YYZZ    -232.9515
      XZZZ     188.4529   YZZZ     -39.0906   ZZZZ    -816.5545
 -----------------------------------------------------------------
 Calculating analytic gradient of the SCF energy
 CPU 0.00 s  wall 0.00 s
 CPU 10.03 s  wall 10.03 s
 Gradient of SCF Energy
            1           2           3           4           5           6
    1  -0.0083918   0.0207167   0.0005795  -0.0892726  -0.0030498  -0.0131899
    2   0.0296136  -0.0162711  -0.0056082   0.0259838  -0.0893933   0.0135766
    3  -0.0054353   0.0151506  -0.0009638  -0.0106326   0.0178055   0.0420739
            7           8           9          10          11          12
    1   0.0424671  -0.0041642   0.0048899   0.0241561   0.0147769   0.0044129
    2   0.0451731  -0.0183220  -0.0047164  -0.0314327   0.0287076  -0.0057561
    3   0.0742917  -0.0551252   0.0039655   0.0006312  -0.0196601  -0.0388082
           13          14          15
    1  -0.0155844   0.0333210  -0.0116675
    2  -0.0025957   0.0199392   0.0111015
    3  -0.0223398  -0.0008159  -0.0001375
 Max gradient component =       8.939E-02
 RMS gradient           =       3.020E-02
 Gradient time:  CPU 87.85 s  wall 87.95 s
 Geometry Optimization Parameters
   NAtoms,    NIC,     NZ,  NCons,   NDum,   NFix, NCnnct, MaxDiis
       15     170       0       0       0       0       0       0

 Cartesian Hessian Update
 Hessian Updated using Powell/Murtagh-Sargent Update
  Mixing factors:     0.004905 Powell
                      0.995095 Murtagh-Sargent


** GEOMETRY OPTIMIZATION IN DELOCALIZED INTERNAL COORDINATES **
   Searching for a Transition State

   Optimization Cycle:   2

                       Coordinates (Angstroms)
     ATOM                X               Y               Z
      1  C         1.5847727405   -0.0809795966    0.2867185070
      2  O         1.9022963510    0.9831418384    0.8666343875
      3  O         2.2903565530   -1.1345253853    0.2559137361
      4  C         0.2511667290   -0.3294144326   -0.5766868825
      5  O        -0.4808424159    1.6109868296   -0.7732235114
      6  C         0.4257890683   -1.0224029934   -1.6259827022
      7  O        -1.1661441361   -0.3276718704   -0.0223251488
      8  C        -2.1204469492   -0.8437792297   -0.6696109595
      9  H        -1.5275973162   -0.0190492853    1.4832693445
     10  H        -1.3937004562    1.0286788753    1.7912964591
     11  H        -0.9309153517   -0.6516441783    2.1619827281
     12  C        -2.5913364344   -0.2909585732    1.5983205648
     13  H        -0.9013919505    1.5923127950   -1.7704936985
     14  H         0.4757318945    2.1150338359   -0.7263983951
     15  H        -1.1729748964    2.1398204448   -0.0961439540
   Point Group: c1    Number of degrees of freedom:    39


   Energy is   -494.166561731

 Hessian Updated using Powell/Murtagh-Sargent Update
  Mixing factors:     0.979691 Powell
                      0.020309 Murtagh-Sargent

 39 Hessian modes will be used to form the next step
  Hessian Eigenvalues:
    -0.000592    0.002048    0.004645    0.007403    0.018548    0.022305
     0.023548    0.024339    0.027030    0.029101    0.034941    0.037202
     0.043837    0.045447    0.060272    0.066174    0.076389    0.077858
     0.080182    0.086421    0.091952    0.096591    0.101420    0.102689
     0.111959    0.125446    0.140721    0.188958    0.228257    0.249175
     0.251066    0.279811    0.306852    0.344001    0.348318    0.765854
     0.768134    0.789213    0.823188

 Transition State Search - Taking P-RFO Step
 Searching for Lamda that Maximizes Along the Lowest mode
 Value Taken    Lamda =   0.01815454
 Searching for Lamda that Minimizes Along All other modes
 Value Taken    Lamda =  -0.10461509
 Calculated Step too Large.  Step scaled by  0.247491
 Step Taken.  Stepsize is  0.300000

                             Maximum     Tolerance    Cnvgd?
         Gradient           0.074807      0.000300      NO
         Displacement       0.096472      0.001200      NO
         Energy change     -0.020836      0.000001      NO


 New Cartesian Coordinates Obtained by Inverse Iteration

 Displacement from previous Coordinates is:  0.397337
 ----------------------------------------------------------------
             Standard Nuclear Orientation (Angstroms)
    I     Atom           X                Y                Z
 ----------------------------------------------------------------
    1      C       1.6023934765    -0.0802788960     0.2601007009
    2      O       1.9263075679     1.0369971297     0.7260582030
    3      O       2.2902628543    -1.1438365186     0.3180867759
    4      C       0.2714509941    -0.3457538034    -0.5912193983
    5      O      -0.4685305256     1.6197166332    -0.7599392800
    6      C       0.4513342501    -1.0261113893    -1.6569729670
    7      O      -1.1604236819    -0.3489827367    -0.0293224369
    8      C      -2.1175235656    -0.8628002532    -0.6725413711
    9      H      -1.5571878395    -0.0285724339     1.5049531865
   10      H      -1.4071974730     1.0222762414     1.8151701614
   11      H      -0.9893618314    -0.6758381491     2.1973221905
   12      C      -2.6351991772    -0.2740091236     1.6071932004
   13      H      -0.8886077887     1.6201680039    -1.7509911453
   14      H       0.4830959612     2.1164790417    -0.7100153321
   15      H      -1.1560497913     2.1400953281    -0.0746120127
 ----------------------------------------------------------------
 Molecular Point Group                 C1    NOp =  1
 Largest Abelian Subgroup              C1    NOp =  1
 Nuclear Repulsion Energy =   434.1193917864 hartrees
 There are       35 alpha and       35 beta electrons
 Applying Cartesian multipole field
    Component          Value
    ---------          -----
     (2,0,0)        1.00000E-11
     (0,2,0)        2.00000E-11
     (0,0,2)       -3.00000E-11
 Nucleus-field energy     =     0.0000000046 hartrees
 Requested basis set is 6-31+G(d)
 There are 57 shells and 183 basis functions
 A cutoff of  1.0D-11 yielded   1521 shell pairs
 There are     16267 function pairs
 Smallest overlap matrix eigenvalue = 1.89E-05
 Guess MOs from SCF MO coefficient file
 Reading MOs from coefficient file
 Reading MOs from coefficient file
 A restricted hybrid HF-DFT SCF calculation will be
 performed using Pulay DIIS extrapolation
 Exchange:     0.2000 Hartree-Fock + 0.0800 Slater + 0.7200 B88
 Correlation:  0.1900 VWN1RPA + 0.8100 LYP
 Using SG-1 standard quadrature grid
 SCF converges when DIIS error is below 1.0E-08
Geometry optimization detected.  Setting ReadMinima to 0
Setting SaveMinima to 0
 CPU 0.00 s  wall 0.00 s
 CPU 8.31 s  wall 8.31 s
 ---------------------------------------
  Cycle       Energy         DIIS Error
 ---------------------------------------
    1    -494.1754802841      2.71E-03
 CPU 0.00 s  wall 0.00 s
 CPU 6.38 s  wall 6.39 s
    2    -494.1854815475      5.85E-04
 CPU 0.00 s  wall 0.00 s
 CPU 6.35 s  wall 6.35 s
    3    -494.1725804125      1.65E-03
 CPU 0.00 s  wall 0.00 s
 CPU 6.39 s  wall 6.39 s
    4    -494.1846415017      6.76E-04
 CPU 0.00 s  wall 0.00 s
 CPU 6.34 s  wall 6.34 s
    5    -494.1873532385      7.07E-05
 CPU 0.00 s  wall 0.00 s
 CPU 6.25 s  wall 6.25 s
    6    -494.1873661150      7.09E-05
 CPU 0.00 s  wall 0.00 s
 CPU 6.21 s  wall 6.21 s
    7    -494.1873880744      3.53E-05
 CPU 0.00 s  wall 0.00 s
 CPU 5.54 s  wall 5.54 s
    8    -494.1873973402      1.48E-05
 CPU 0.00 s  wall 0.00 s
 CPU 5.06 s  wall 5.06 s
    9    -494.1873997420      9.82E-06
 CPU 0.00 s  wall 0.00 s
 CPU 5.04 s  wall 5.04 s
   10    -494.1874009308      7.74E-06
 CPU 0.00 s  wall 0.00 s
 CPU 5.03 s  wall 5.03 s
   11    -494.1874017512      3.36E-06
 CPU 0.00 s  wall 0.00 s
 CPU 5.00 s  wall 5.00 s
   12    -494.1874018955      1.79E-06
 CPU 0.00 s  wall 0.00 s
 CPU 4.89 s  wall 4.89 s
   13    -494.1874019223      9.98E-07
 CPU 0.00 s  wall 0.00 s
 CPU 4.90 s  wall 4.90 s
   14    -494.1874019351      5.34E-07
 CPU 0.00 s  wall 0.00 s
 CPU 4.85 s  wall 4.85 s
   15    -494.1874019410      2.39E-07
 CPU 0.00 s  wall 0.00 s
 CPU 6.02 s  wall 6.02 s
   16    -494.1874019444      2.04E-07
 CPU 0.00 s  wall 0.00 s
 CPU 4.72 s  wall 4.72 s
   17    -494.1874019432      1.20E-07
 CPU 0.00 s  wall 0.00 s
 CPU 4.78 s  wall 4.78 s
   18    -494.1874019443      4.55E-08
 CPU 0.00 s  wall 0.00 s
 CPU 4.60 s  wall 4.60 s
   19    -494.1874019443      1.65E-08
 CPU 0.00 s  wall 0.00 s
 CPU 4.33 s  wall 4.33 s
   20    -494.1874019440      6.51E-09 Convergence criterion met
 ---------------------------------------
 SCF time:  CPU 268.24 s  wall 267.73 s
 SCF   energy in the final basis set = -494.1874019440
 Total energy in the final basis set = -494.1874019440
 
 --------------------------------------------------------------
 
                    Orbital Energies (a.u.)
 --------------------------------------------------------------
 
 Alpha MOs
 -- Occupied --
-19.046 -19.002 -18.844 -18.820 -10.025 -10.022  -9.944  -9.937
 -9.915  -0.885  -0.860  -0.758  -0.668  -0.504  -0.399  -0.377
 -0.367  -0.345  -0.275  -0.248  -0.200  -0.173  -0.158  -0.133
 -0.121  -0.101  -0.059  -0.020   0.001   0.013   0.021   0.041
  0.054   0.099   0.125
 -- Virtual --
  0.168   0.176   0.187   0.240   0.247   0.250   0.260   0.262
  0.268   0.279   0.284   0.293   0.298   0.312   0.319   0.325
  0.332   0.334   0.337   0.341   0.352   0.368   0.375   0.386
  0.394   0.411   0.419   0.424   0.438   0.453   0.466   0.475
  0.487   0.506   0.520   0.535   0.550   0.559   0.565   0.573
  0.580   0.589   0.592   0.602   0.621   0.645   0.655   0.705
  0.716   0.747   0.758   0.807   0.935   0.952   0.973   0.996
  1.007   1.008   1.036   1.045   1.057   1.063   1.083   1.106
  1.132   1.146   1.182   1.183   1.211   1.223   1.258   1.280
  1.291   1.335   1.379   1.396   1.425   1.436   1.471   1.500
  1.524   1.549   1.562   1.580   1.600   1.621   1.631   1.638
  1.667   1.691   1.702   1.769   1.797   1.806   1.817   1.863
  1.883   1.936   1.954   1.971   1.979   2.018   2.031   2.037
  2.062   2.084   2.119   2.122   2.138   2.154   2.178   2.197
  2.241   2.255   2.281   2.317   2.362   2.395   2.444   2.488
  2.534   2.591   2.604   2.618   2.638   2.670   2.701   2.704
  2.758   2.854   2.952   2.987   3.072   3.119   3.200   3.313
  3.350   3.379   3.451   4.295   4.430   4.466   4.544   4.577
  4.632   4.701   4.740   4.955
 --------------------------------------------------------------
 
          Ground-State Mulliken Net Atomic Charges

     Atom                 Charge (a.u.)
  ----------------------------------------
      1 C                     0.354836
      2 O                    -0.481873
      3 O                    -0.568685
      4 C                    -1.544110
      5 O                    -0.339532
      6 C                    -0.540902
      7 O                     0.412947
      8 C                    -0.025701
      9 H                     0.010371
     10 H                     0.027603
     11 H                     0.004448
     12 C                    -0.575183
     13 H                     0.401968
     14 H                     0.458686
     15 H                     0.405128
  ----------------------------------------
  Sum of atomic charges =    -2.000000

 -----------------------------------------------------------------
                    Cartesian Multipole Moments
 -----------------------------------------------------------------
    Charge (ESU x 10^10)
                -9.6064
    Dipole Moment (Debye)
         X       1.8949      Y       4.6426      Z      -6.5579
       Tot       8.2553
    Quadrupole Moments (Debye-Ang)
        XX    -123.0965     XY       1.7623     YY     -80.7458
        XZ      14.2161     YZ      -8.8107     ZZ    -101.1112
    Octopole Moments (Debye-Ang^2)
       XXX      93.1027    XXY      18.3946    XYY      10.3790
       YYY      13.5936    XXZ     -67.3746    XYZ      -4.7254
       YYZ      -7.4854    XZZ      56.4419    YZZ      20.4530
       ZZZ     -35.7078
    Hexadecapole Moments (Debye-Ang^3)
      XXXX   -1694.1353   XXXY      -4.6037   XXYY    -353.6013
      XYYY      19.0805   YYYY    -532.0904   XXXZ     205.1433
      XXYZ      -9.9524   XYYZ      31.3406   YYYZ     -35.5915
      XXZZ    -463.1433   XYZZ     -10.0913   YYZZ    -233.5021
      XZZZ     208.5169   YZZZ     -40.8282   ZZZZ    -830.9232
 -----------------------------------------------------------------
 Calculating analytic gradient of the SCF energy
 CPU 0.00 s  wall 0.00 s
 CPU 8.26 s  wall 8.26 s
 Gradient of SCF Energy
            1           2           3           4           5           6
    1  -0.0062317   0.0165388   0.0021508  -0.0904893  -0.0002702  -0.0116122
    2   0.0325189  -0.0182153  -0.0095274   0.0326580  -0.0841880   0.0040175
    3  -0.0023514   0.0128125  -0.0040707   0.0049839   0.0157926   0.0311522
            7           8           9          10          11          12
    1   0.0553046  -0.0124138   0.0096275   0.0233135   0.0161339  -0.0045365
    2   0.0467061  -0.0229593  -0.0025421  -0.0309189   0.0274218  -0.0067631
    3   0.0727577  -0.0594327   0.0082111   0.0015601  -0.0194586  -0.0374755
           13          14          15
    1  -0.0153441   0.0300406  -0.0122120
    2  -0.0012707   0.0214502   0.0116122
    3  -0.0221616  -0.0027668   0.0004471
 Max gradient component =       9.049E-02
 RMS gradient           =       3.032E-02
 Gradient time:  CPU 63.95 s  wall 63.98 s
 Geometry Optimization Parameters
   NAtoms,    NIC,     NZ,  NCons,   NDum,   NFix, NCnnct, MaxDiis
       15     170       0       0       0       0       0       0

 Cartesian Hessian Update
 Hessian Updated using Powell/Murtagh-Sargent Update
  Mixing factors:     0.026871 Powell
                      0.973129 Murtagh-Sargent


** GEOMETRY OPTIMIZATION IN DELOCALIZED INTERNAL COORDINATES **
   Searching for a Transition State

   Optimization Cycle:   3

                       Coordinates (Angstroms)
     ATOM                X               Y               Z
      1  C         1.6023934765   -0.0802788960    0.2601007009
      2  O         1.9263075679    1.0369971297    0.7260582030
      3  O         2.2902628543   -1.1438365186    0.3180867759
      4  C         0.2714509941   -0.3457538034   -0.5912193983
      5  O        -0.4685305256    1.6197166332   -0.7599392800
      6  C         0.4513342501   -1.0261113893   -1.6569729670
      7  O        -1.1604236819   -0.3489827367   -0.0293224369
      8  C        -2.1175235656   -0.8628002532   -0.6725413711
      9  H        -1.5571878395   -0.0285724339    1.5049531865
     10  H        -1.4071974730    1.0222762414    1.8151701614
     11  H        -0.9893618314   -0.6758381491    2.1973221905
     12  C        -2.6351991772   -0.2740091236    1.6071932004
     13  H        -0.8886077887    1.6201680039   -1.7509911453
     14  H         0.4830959612    2.1164790417   -0.7100153321
     15  H        -1.1560497913    2.1400953281   -0.0746120127
   Point Group: c1    Number of degrees of freedom:    39


   Energy is   -494.187401944

 Hessian Updated using Powell/Murtagh-Sargent Update
  Mixing factors:     0.947557 Powell
                      0.052443 Murtagh-Sargent

 39 Hessian modes will be used to form the next step
  Hessian Eigenvalues:
    -0.015307    0.004457    0.006118    0.008458    0.018222    0.021735
     0.023740    0.024338    0.026731    0.029076    0.035802    0.036928
     0.043716    0.046159    0.059007    0.061791    0.076365    0.077239
     0.079614    0.084242    0.090427    0.094350    0.101377    0.102652
     0.112584    0.127615    0.140088    0.190459    0.227497    0.239981
     0.251274    0.273425    0.306481    0.342593    0.348016    0.760276
     0.766350    0.790284    0.822769

 Transition State Search - Taking P-RFO Step
 Searching for Lamda that Maximizes Along the Lowest mode
 Value Taken    Lamda =   0.02817710
 Searching for Lamda that Minimizes Along All other modes
 Value Taken    Lamda =  -0.11001713
 Calculated Step too Large.  Step scaled by  0.268357
 Step Taken.  Stepsize is  0.300000

                             Maximum     Tolerance    Cnvgd?
         Gradient           0.069336      0.000300      NO
         Displacement       0.110907      0.001200      NO
         Energy change     -0.020840      0.000001      NO


 New Cartesian Coordinates Obtained by Inverse Iteration

 Displacement from previous Coordinates is:  0.371872
 ----------------------------------------------------------------
             Standard Nuclear Orientation (Angstroms)
    I     Atom           X                Y                Z
 ----------------------------------------------------------------
    1      C       1.6120381816    -0.1102389311     0.2679422953
    2      O       1.8841449059     1.0083773036     0.7615940133
    3      O       2.3804344680    -1.1161990501     0.2099105080
    4      C       0.3004604148    -0.3659996832    -0.6036569869
    5      O      -0.4595305504     1.6284556290    -0.7649325355
    6      C       0.4887725184    -1.0517643439    -1.6694895571
    7      O      -1.1619058354    -0.3573324466    -0.0370220630
    8      C      -2.1284853104    -0.8633015930    -0.6483597211
    9      H      -1.5880087078    -0.0180554703     1.5248146967
   10      H      -1.4438233545     1.0439677607     1.8199095716
   11      H      -1.0268553286    -0.6636750741     2.2336020070
   12      C      -2.6655465004    -0.2609172918     1.6334732240
   13      H      -0.8703751766     1.6327000756    -1.7509698732
   14      H       0.4769884734     2.1224045612    -0.7110298029
   15      H      -1.1535447681     2.1411276282    -0.0825153011
 ----------------------------------------------------------------
 Molecular Point Group                 C1    NOp =  1
 Largest Abelian Subgroup              C1    NOp =  1
 Nuclear Repulsion Energy =   431.9445054066 hartrees
 There are       35 alpha and       35 beta electrons
 Applying Cartesian multipole field
    Component          Value
    ---------          -----
     (2,0,0)        1.00000E-11
     (0,2,0)        2.00000E-11
     (0,0,2)       -3.00000E-11
 Nucleus-field energy     =     0.0000000046 hartrees
 Requested basis set is 6-31+G(d)
 There are 57 shells and 183 basis functions
 A cutoff of  1.0D-11 yielded   1520 shell pairs
 There are     16223 function pairs
 Smallest overlap matrix eigenvalue = 1.91E-05
 Guess MOs from SCF MO coefficient file
 Reading MOs from coefficient file
 Reading MOs from coefficient file
 A restricted hybrid HF-DFT SCF calculation will be
 performed using Pulay DIIS extrapolation
 Exchange:     0.2000 Hartree-Fock + 0.0800 Slater + 0.7200 B88
 Correlation:  0.1900 VWN1RPA + 0.8100 LYP
 Using SG-1 standard quadrature grid
 SCF converges when DIIS error is below 1.0E-08
Geometry optimization detected.  Setting ReadMinima to 0
Setting SaveMinima to 0
 CPU 0.00 s  wall 0.00 s
 CPU 6.95 s  wall 6.95 s
 ---------------------------------------
  Cycle       Energy         DIIS Error
 ---------------------------------------
    1    -494.2040231485      2.93E-03
 CPU 0.00 s  wall 0.00 s
 CPU 5.21 s  wall 5.21 s
    2    -494.2051453552      6.99E-04
 CPU 0.00 s  wall 0.00 s
 CPU 5.24 s  wall 5.24 s
    3    -494.1910154532      1.70E-03
 CPU 0.00 s  wall 0.00 s
 CPU 5.23 s  wall 5.23 s
    4    -494.2051210527      7.00E-04
 CPU 0.00 s  wall 0.00 s
 CPU 5.18 s  wall 5.18 s
    5    -494.2079878293      1.05E-04
 CPU 0.00 s  wall 0.00 s
 CPU 5.14 s  wall 5.14 s
    6    -494.2079963430      1.13E-04
 CPU 0.00 s  wall 0.00 s
 CPU 5.10 s  wall 5.10 s
    7    -494.2080586581      4.13E-05
 CPU 0.00 s  wall 0.00 s
 CPU 5.08 s  wall 5.08 s
    8    -494.2080706504      2.18E-05
 CPU 0.00 s  wall 0.00 s
 CPU 5.02 s  wall 5.02 s
    9    -494.2080740432      1.05E-05
 CPU 0.00 s  wall 0.00 s
 CPU 5.07 s  wall 5.07 s
   10    -494.2080749012      1.08E-05
 CPU 0.00 s  wall 0.00 s
 CPU 6.03 s  wall 6.03 s
   11    -494.2080758370      3.56E-06
 CPU 0.00 s  wall 0.00 s
 CPU 5.96 s  wall 5.96 s
   12    -494.2080759631      1.78E-06
 CPU 0.00 s  wall 0.00 s
 CPU 5.90 s  wall 5.90 s
   13    -494.2080759918      7.74E-07
 CPU 0.00 s  wall 0.00 s
 CPU 5.79 s  wall 5.79 s
   14    -494.2080759987      3.92E-07
 CPU 0.00 s  wall 0.00 s
 CPU 5.66 s  wall 5.66 s
   15    -494.2080760034      2.05E-07
 CPU 0.00 s  wall 0.00 s
 CPU 4.76 s  wall 4.76 s
   16    -494.2080760056      1.28E-07
 CPU 0.00 s  wall 0.00 s
 CPU 4.67 s  wall 4.67 s
   17    -494.2080760054      7.62E-08
 CPU 0.00 s  wall 0.00 s
 CPU 4.65 s  wall 4.65 s
   18    -494.2080760053      2.49E-08
 CPU 0.00 s  wall 0.00 s
 CPU 4.44 s  wall 4.44 s
   19    -494.2080760050      7.77E-09 Convergence criterion met
 ---------------------------------------
 SCF time:  CPU 238.95 s  wall 238.10 s
 SCF   energy in the final basis set = -494.2080760050
 Total energy in the final basis set = -494.2080760050
 
 --------------------------------------------------------------
 
                    Orbital Energies (a.u.)
 --------------------------------------------------------------
 
 Alpha MOs
 -- Occupied --
-19.050 -19.001 -18.840 -18.818 -10.025 -10.022  -9.946  -9.931
 -9.910  -0.887  -0.863  -0.756  -0.666  -0.497  -0.395  -0.376
 -0.371  -0.350  -0.272  -0.247  -0.200  -0.171  -0.160  -0.131
 -0.120  -0.104  -0.059  -0.017   0.004   0.016   0.026   0.038
  0.054   0.096   0.124
 -- Virtual --
  0.171   0.176   0.188   0.238   0.248   0.250   0.259   0.262
  0.268   0.280   0.284   0.291   0.298   0.311   0.320   0.323
  0.331   0.333   0.338   0.340   0.350   0.366   0.375   0.386
  0.394   0.410   0.418   0.425   0.434   0.452   0.465   0.477
  0.486   0.504   0.525   0.535   0.550   0.558   0.564   0.574
  0.581   0.588   0.593   0.603   0.624   0.645   0.655   0.702
  0.712   0.746   0.760   0.820   0.934   0.954   0.975   0.994
  1.004   1.009   1.037   1.047   1.063   1.065   1.090   1.109
  1.131   1.145   1.176   1.184   1.208   1.227   1.258   1.284
  1.290   1.328   1.372   1.394   1.420   1.431   1.473   1.504
  1.523   1.546   1.560   1.580   1.600   1.622   1.630   1.637
  1.669   1.692   1.700   1.772   1.789   1.808   1.825   1.864
  1.871   1.931   1.951   1.958   1.980   2.014   2.026   2.032
  2.054   2.084   2.114   2.118   2.135   2.154   2.182   2.192
  2.236   2.255   2.277   2.303   2.346   2.391   2.447   2.468
  2.532   2.578   2.605   2.626   2.648   2.667   2.700   2.720
  2.755   2.850   2.946   2.988   3.078   3.115   3.198   3.313
  3.362   3.379   3.453   4.279   4.424   4.458   4.541   4.572
  4.629   4.702   4.735   4.948
 --------------------------------------------------------------
 
          Ground-State Mulliken Net Atomic Charges

     Atom                 Charge (a.u.)
  ----------------------------------------
      1 C                     0.408268
      2 O                    -0.484412
      3 O                    -0.580130
      4 C                    -1.531255
      5 O                    -0.383530
      6 C                    -0.578731
      7 O                     0.411278
      8 C                    -0.008182
      9 H                     0.022854
     10 H                     0.020034
     11 H                     0.001789
     12 C                    -0.590769
     13 H                     0.412693
     14 H                     0.472724
     15 H                     0.407370
  ----------------------------------------
  Sum of atomic charges =    -2.000000

 -----------------------------------------------------------------
                    Cartesian Multipole Moments
 -----------------------------------------------------------------
    Charge (ESU x 10^10)
                -9.6064
    Dipole Moment (Debye)
         X       1.5160      Y       4.8052      Z      -6.4190
       Tot       8.1603
    Quadrupole Moments (Debye-Ang)
        XX    -124.3163     XY       2.4496     YY     -79.8777
        XZ      15.8064     YZ      -9.7831     ZZ    -101.7224
    Octopole Moments (Debye-Ang^2)
       XXX      88.3731    XXY      20.1207    XYY       9.9380
       YYY      16.0458    XXZ     -68.7037    XYZ      -5.9386
       YYZ      -6.8118    XZZ      57.1436    YZZ      21.1422
       ZZZ     -36.0780
    Hexadecapole Moments (Debye-Ang^3)
      XXXX   -1736.4926   XXXY       8.5425   XXYY    -355.9496
      XYYY      26.5106   YYYY    -527.2033   XXXZ     229.3264
      XXYZ     -14.7275   XYYZ      36.8677   YYYZ     -42.4213
      XXZZ    -475.6329   XYZZ      -7.4088   YYZZ    -234.7249
      XZZZ     228.4823   YZZZ     -48.1159   ZZZZ    -849.4092
 -----------------------------------------------------------------
 Calculating analytic gradient of the SCF energy
 CPU 0.00 s  wall 0.00 s
 CPU 8.18 s  wall 8.18 s
 Gradient of SCF Energy
            1           2           3           4           5           6
    1  -0.0087604   0.0148249   0.0031157  -0.0885026   0.0027938  -0.0071754
    2   0.0214936  -0.0164362  -0.0053697   0.0378182  -0.0762148  -0.0002735
    3   0.0134717   0.0045993  -0.0103989   0.0079022   0.0135323   0.0258372
            7           8           9          10          11          12
    1   0.0592321  -0.0178095   0.0092558   0.0247266   0.0180980  -0.0092237
    2   0.0447563  -0.0244775  -0.0015868  -0.0287503   0.0267976  -0.0081849
    3   0.0689677  -0.0591689   0.0120684   0.0028755  -0.0184250  -0.0383855
           13          14          15
    1  -0.0146791   0.0261590  -0.0120551
    2  -0.0003805   0.0199503   0.0108581
    3  -0.0203799  -0.0026514   0.0001554
 Max gradient component =       8.850E-02
 RMS gradient           =       2.936E-02
 Gradient time:  CPU 62.70 s  wall 62.72 s
 Geometry Optimization Parameters
   NAtoms,    NIC,     NZ,  NCons,   NDum,   NFix, NCnnct, MaxDiis
       15     170       0       0       0       0       0       0

 Cartesian Hessian Update
 Hessian Updated using Powell/Murtagh-Sargent Update
  Mixing factors:     0.891921 Powell
                      0.108079 Murtagh-Sargent


** GEOMETRY OPTIMIZATION IN DELOCALIZED INTERNAL COORDINATES **
   Searching for a Transition State

   Optimization Cycle:   4

                       Coordinates (Angstroms)
     ATOM                X               Y               Z
      1  C         1.6120381816   -0.1102389311    0.2679422953
      2  O         1.8841449059    1.0083773036    0.7615940133
      3  O         2.3804344680   -1.1161990501    0.2099105080
      4  C         0.3004604148   -0.3659996832   -0.6036569869
      5  O        -0.4595305504    1.6284556290   -0.7649325355
      6  C         0.4887725184   -1.0517643439   -1.6694895571
      7  O        -1.1619058354   -0.3573324466   -0.0370220630
      8  C        -2.1284853104   -0.8633015930   -0.6483597211
      9  H        -1.5880087078   -0.0180554703    1.5248146967
     10  H        -1.4438233545    1.0439677607    1.8199095716
     11  H        -1.0268553286   -0.6636750741    2.2336020070
     12  C        -2.6655465004   -0.2609172918    1.6334732240
     13  H        -0.8703751766    1.6327000756   -1.7509698732
     14  H         0.4769884734    2.1224045612   -0.7110298029
     15  H        -1.1535447681    2.1411276282   -0.0825153011
   Point Group: c1    Number of degrees of freedom:    39


   Energy is   -494.208076005

 Hessian Updated using Powell/Murtagh-Sargent Update
  Mixing factors:     0.998507 Powell
                      0.001493 Murtagh-Sargent

 39 Hessian modes will be used to form the next step
  Hessian Eigenvalues:
    -0.016995    0.004765    0.006886    0.014033    0.020018    0.023731
     0.023890    0.025840    0.029039    0.032239    0.036000    0.038960
     0.043312    0.047339    0.048434    0.061371    0.076645    0.077532
     0.080308    0.083408    0.089704    0.094443    0.101557    0.103223
     0.112458    0.128793    0.140398    0.190839    0.226593    0.235823
     0.252064    0.273140    0.306356    0.342114    0.347972    0.760079
     0.766673    0.790592    0.822930

 Transition State Search - Taking P-RFO Step
 Searching for Lamda that Maximizes Along the Lowest mode
 Value Taken    Lamda =   0.00067108
 Searching for Lamda that Minimizes Along All other modes
 Value Taken    Lamda =  -0.11748759
 Calculated Step too Large.  Step scaled by  0.343464
 Step Taken.  Stepsize is  0.300000

                             Maximum     Tolerance    Cnvgd?
         Gradient           0.062370      0.000300      NO
         Displacement       0.139357      0.001200      NO
         Energy change     -0.020674      0.000001      NO


 New Cartesian Coordinates Obtained by Inverse Iteration

 Displacement from previous Coordinates is:  0.470254
 ----------------------------------------------------------------
             Standard Nuclear Orientation (Angstroms)
    I     Atom           X                Y                Z
 ----------------------------------------------------------------
    1      C       1.6315098140    -0.1121395553     0.2241996365
    2      O       1.8306998040     1.0502578190     0.6607289075
    3      O       2.4440232015    -1.0795321287     0.2350017414
    4      C       0.3397489643    -0.4038943677    -0.6499240977
    5      O      -0.4350588480     1.6278960108    -0.7540904309
    6      C       0.5370618147    -1.0625841937    -1.7342767173
    7      O      -1.1731401332    -0.3839669954    -0.0547764784
    8      C      -2.1526280143    -0.8606309725    -0.6198081225
    9      H      -1.6332900329    -0.0216643219     1.5554575366
   10      H      -1.4659156599     1.0514781889     1.8404540810
   11      H      -1.1027169950    -0.6856168478     2.2857528385
   12      C      -2.7131662483    -0.2289825530     1.6711957048
   13      H      -0.8379396484     1.6604771932    -1.7253184726
   14      H       0.4945638217     2.0885873578    -0.6881800622
   15      H      -1.1189884104     2.1298644405    -0.0631455897
 ----------------------------------------------------------------
 Molecular Point Group                 C1    NOp =  1
 Largest Abelian Subgroup              C1    NOp =  1
 Nuclear Repulsion Energy =   429.4839424736 hartrees
 There are       35 alpha and       35 beta electrons
 Applying Cartesian multipole field
    Component          Value
    ---------          -----
     (2,0,0)        1.00000E-11
     (0,2,0)        2.00000E-11
     (0,0,2)       -3.00000E-11
 Nucleus-field energy     =     0.0000000046 hartrees
 Requested basis set is 6-31+G(d)
 There are 57 shells and 183 basis functions
 A cutoff of  1.0D-11 yielded   1515 shell pairs
 There are     16201 function pairs
 Smallest overlap matrix eigenvalue = 1.94E-05
 Guess MOs from SCF MO coefficient file
 Reading MOs from coefficient file
 Reading MOs from coefficient file
 A restricted hybrid HF-DFT SCF calculation will be
 performed using Pulay DIIS extrapolation
 Exchange:     0.2000 Hartree-Fock + 0.0800 Slater + 0.7200 B88
 Correlation:  0.1900 VWN1RPA + 0.8100 LYP
 Using SG-1 standard quadrature grid
 SCF converges when DIIS error is below 1.0E-08
Geometry optimization detected.  Setting ReadMinima to 0
Setting SaveMinima to 0
 CPU 0.00 s  wall 0.00 s
 Inaccurate integrated density:
   Number of electrons =    70
   Numerical integral  =    70.089108124141
   Relative error      =     0.1272973202 %
 CPU 6.83 s  wall 6.83 s
 ---------------------------------------
  Cycle       Energy         DIIS Error
 ---------------------------------------
    1    -494.2488926791      3.57E-03
 CPU 0.00 s  wall 0.00 s
 CPU 5.16 s  wall 5.16 s
    2    -494.2411038390      1.05E-03
 CPU 0.00 s  wall 0.00 s
 CPU 5.17 s  wall 5.17 s
    3    -494.2220899475      2.24E-03
 CPU 0.00 s  wall 0.00 s
 CPU 5.17 s  wall 5.17 s
    4    -494.2454959630      5.48E-04
 CPU 0.00 s  wall 0.00 s
 CPU 5.12 s  wall 5.12 s
    5    -494.2469660967      2.63E-04
 CPU 0.00 s  wall 0.00 s
 CPU 5.07 s  wall 5.07 s
    6    -494.2472804556      1.47E-04
 CPU 0.00 s  wall 0.00 s
 CPU 5.03 s  wall 5.03 s
    7    -494.2473837184      4.00E-05
 CPU 0.00 s  wall 0.00 s
 CPU 5.00 s  wall 5.00 s
    8    -494.2473851800      4.53E-05
 CPU 0.00 s  wall 0.00 s
 CPU 4.98 s  wall 4.98 s
    9    -494.2473961356      1.43E-05
 CPU 0.00 s  wall 0.00 s
 CPU 4.97 s  wall 4.97 s
   10    -494.2473972327      8.81E-06
 CPU 0.00 s  wall 0.00 s
 CPU 4.92 s  wall 4.92 s
   11    -494.2473977403      2.57E-06
 CPU 0.00 s  wall 0.00 s
 CPU 4.85 s  wall 4.85 s
   12    -494.2473977900      1.23E-06
 CPU 0.00 s  wall 0.00 s
 CPU 4.75 s  wall 4.75 s
   13    -494.2473977986      6.36E-07
 CPU 0.00 s  wall 0.00 s
 CPU 4.72 s  wall 4.72 s
   14    -494.2473978014      1.92E-07
 CPU 0.00 s  wall 0.00 s
 CPU 4.67 s  wall 4.67 s
   15    -494.2473978024      1.04E-07
 CPU 0.00 s  wall 0.00 s
 CPU 4.60 s  wall 4.60 s
   16    -494.2473978028      6.48E-08
 CPU 0.00 s  wall 0.00 s
 CPU 4.49 s  wall 4.49 s
   17    -494.2473978023      3.54E-08
 CPU 0.00 s  wall 0.00 s
 CPU 4.44 s  wall 4.44 s
   18    -494.2473978016      1.43E-08
 CPU 0.00 s  wall 0.00 s
 CPU 4.21 s  wall 4.21 s
   19    -494.2473978015      4.07E-09 Convergence criterion met
 ---------------------------------------
 SCF time:  CPU 220.45 s  wall 219.29 s
 SCF   energy in the final basis set = -494.2473978015
 Total energy in the final basis set = -494.2473978015
 
 --------------------------------------------------------------
 
                    Orbital Energies (a.u.)
 --------------------------------------------------------------
 
 Alpha MOs
 -- Occupied --
-19.058 -18.996 -18.835 -18.815 -10.025 -10.017  -9.947  -9.915
 -9.894  -0.896  -0.867  -0.751  -0.662  -0.482  -0.391  -0.388
 -0.369  -0.355  -0.265  -0.246  -0.199  -0.172  -0.162  -0.129
 -0.117  -0.105  -0.057  -0.008   0.009   0.021   0.031   0.035
  0.057   0.091   0.120
 -- Virtual --
  0.173   0.180   0.193   0.236   0.250   0.252   0.259   0.262
  0.268   0.281   0.283   0.293   0.298   0.312   0.322   0.325
  0.330   0.333   0.339   0.340   0.347   0.362   0.377   0.389
  0.397   0.409   0.417   0.426   0.431   0.454   0.462   0.477
  0.487   0.506   0.527   0.535   0.550   0.560   0.566   0.574
  0.579   0.592   0.595   0.603   0.628   0.651   0.661   0.703
  0.722   0.751   0.760   0.825   0.936   0.963   0.979   0.991
  1.003   1.011   1.037   1.053   1.069   1.073   1.095   1.110
  1.134   1.144   1.172   1.197   1.206   1.236   1.257   1.278
  1.290   1.322   1.370   1.391   1.413   1.426   1.466   1.507
  1.519   1.540   1.559   1.592   1.603   1.620   1.637   1.644
  1.667   1.690   1.697   1.773   1.791   1.811   1.831   1.862
  1.871   1.924   1.935   1.950   1.975   2.014   2.026   2.031
  2.041   2.085   2.098   2.122   2.144   2.156   2.185   2.194
  2.226   2.251   2.269   2.281   2.340   2.383   2.445   2.457
  2.536   2.562   2.612   2.642   2.662   2.679   2.707   2.735
  2.773   2.855   2.935   2.992   3.082   3.127   3.208   3.317
  3.347   3.379   3.454   4.252   4.417   4.465   4.539   4.568
  4.630   4.699   4.734   4.946
 --------------------------------------------------------------
 
          Ground-State Mulliken Net Atomic Charges

     Atom                 Charge (a.u.)
  ----------------------------------------
      1 C                     0.519034
      2 O                    -0.525920
      3 O                    -0.581297
      4 C                    -1.436890
      5 O                    -0.517625
      6 C                    -0.613517
      7 O                     0.373849
      8 C                     0.020380
      9 H                     0.044275
     10 H                    -0.007367
     11 H                    -0.006519
     12 C                    -0.640966
     13 H                     0.446681
     14 H                     0.503462
     15 H                     0.422420
  ----------------------------------------
  Sum of atomic charges =    -2.000000

 -----------------------------------------------------------------
                    Cartesian Multipole Moments
 -----------------------------------------------------------------
    Charge (ESU x 10^10)
                -9.6064
    Dipole Moment (Debye)
         X       0.8892      Y       5.5450      Z      -6.2811
       Tot       8.4255
    Quadrupole Moments (Debye-Ang)
        XX    -125.0924     XY       2.4015     YY     -77.8928
        XZ      18.2859     YZ     -11.3881     ZZ    -103.3891
    Octopole Moments (Debye-Ang^2)
       XXX      85.1982    XXY      20.6299    XYY       6.8675
       YYY      21.8813    XXZ     -71.8632    XYZ      -4.7351
       YYZ      -6.9141    XZZ      58.2183    YZZ      24.9259
       ZZZ     -33.4894
    Hexadecapole Moments (Debye-Ang^3)
      XXXX   -1778.5098   XXXY      12.5606   XXYY    -356.8886
      XYYY      24.1055   YYYY    -508.7939   XXXZ     262.2142
      XXYZ     -19.6772   XYYZ      46.0200   YYYZ     -53.2234
      XXZZ    -493.8301   XYZZ      -3.4925   YYZZ    -235.6942
      XZZZ     265.1806   YZZZ     -63.5409   ZZZZ    -892.9135
 -----------------------------------------------------------------
 Calculating analytic gradient of the SCF energy
 CPU 0.00 s  wall 0.00 s
 CPU 8.06 s  wall 8.06 s
 Gradient of SCF Energy
            1           2           3           4           5           6
    1  -0.0022946   0.0083373   0.0049245  -0.1014105   0.0143558   0.0004194
    2   0.0203412  -0.0209051  -0.0067780   0.0421012  -0.0667199  -0.0062451
    3   0.0153689   0.0024753  -0.0119900   0.0230764   0.0117234   0.0186361
            7           8           9          10          11          12
    1   0.0769084  -0.0254210   0.0073978   0.0247749   0.0220374  -0.0167723
    2   0.0411518  -0.0228508   0.0008343  -0.0273666   0.0236514  -0.0094308
    3   0.0539543  -0.0515548   0.0204295   0.0022499  -0.0184365  -0.0407518
           13          14          15
    1  -0.0147954   0.0148814  -0.0133432
    2   0.0016437   0.0190548   0.0115179
    3  -0.0203651  -0.0062877   0.0014721
 Max gradient component =       1.014E-01
 RMS gradient           =       2.994E-02
 Gradient time:  CPU 61.65 s  wall 61.66 s
 Geometry Optimization Parameters
   NAtoms,    NIC,     NZ,  NCons,   NDum,   NFix, NCnnct, MaxDiis
       15     170       0       0       0       0       0       0

 Cartesian Hessian Update
 Hessian Updated using Powell/Murtagh-Sargent Update
  Mixing factors:     0.845369 Powell
                      0.154631 Murtagh-Sargent


** GEOMETRY OPTIMIZATION IN DELOCALIZED INTERNAL COORDINATES **
   Searching for a Transition State

   Optimization Cycle:   5

                       Coordinates (Angstroms)
     ATOM                X               Y               Z
      1  C         1.6315098140   -0.1121395553    0.2241996365
      2  O         1.8306998040    1.0502578190    0.6607289075
      3  O         2.4440232015   -1.0795321287    0.2350017414
      4  C         0.3397489643   -0.4038943677   -0.6499240977
      5  O        -0.4350588480    1.6278960108   -0.7540904309
      6  C         0.5370618147   -1.0625841937   -1.7342767173
      7  O        -1.1731401332   -0.3839669954   -0.0547764784
      8  C        -2.1526280143   -0.8606309725   -0.6198081225
      9  H        -1.6332900329   -0.0216643219    1.5554575366
     10  H        -1.4659156599    1.0514781889    1.8404540810
     11  H        -1.1027169950   -0.6856168478    2.2857528385
     12  C        -2.7131662483   -0.2289825530    1.6711957048
     13  H        -0.8379396484    1.6604771932   -1.7253184726
     14  H         0.4945638217    2.0885873578   -0.6881800622
     15  H        -1.1189884104    2.1298644405   -0.0631455897
   Point Group: c1    Number of degrees of freedom:    39


   Energy is   -494.247397801

 Hessian Updated using Powell/Murtagh-Sargent Update
  Mixing factors:     0.952606 Powell
                      0.047394 Murtagh-Sargent

 39 Hessian modes will be used to form the next step
  Hessian Eigenvalues:
    -0.033718   -0.001636    0.004959    0.008131    0.019395    0.023734
     0.024796    0.025235    0.029067    0.033281    0.034551    0.039309
     0.040052    0.044124    0.048130    0.063328    0.074895    0.076935
     0.079625    0.083948    0.089530    0.094428    0.101986    0.106337
     0.112387    0.134083    0.141951    0.191692    0.220768    0.231928
     0.252087    0.272806    0.306210    0.343696    0.348077    0.754542
     0.766529    0.791093    0.821776
**WARNING** Hessian does not have the Desired Local Structure

 Transition State Search - Taking P-RFO Step
 Searching for Lamda that Maximizes Along the Lowest mode
 Value Taken    Lamda =   0.05629822
 Searching for Lamda that Minimizes Along All other modes
 Value Taken    Lamda =  -0.10701201
 Calculated Step too Large.  Step scaled by  0.244746
 Step Taken.  Stepsize is  0.300000

                             Maximum     Tolerance    Cnvgd?
         Gradient           0.062335      0.000300      NO
         Displacement       0.120857      0.001200      NO
         Energy change     -0.039322      0.000001      NO


 New Cartesian Coordinates Obtained by Inverse Iteration

 Displacement from previous Coordinates is:  0.378122
 ----------------------------------------------------------------
             Standard Nuclear Orientation (Angstroms)
    I     Atom           X                Y                Z
 ----------------------------------------------------------------
    1      C       1.6506481355    -0.1365725775     0.2136710603
    2      O       1.7771478732     0.9785362354     0.7843353194
    3      O       2.4928435090    -1.0784097076     0.1817793149
    4      C       0.3697432710    -0.4061772174    -0.6772609522
    5      O      -0.4400244300     1.6423084894    -0.7747810548
    6      C       0.5591655888    -1.0708314280    -1.7619014175
    7      O      -1.1654465314    -0.3828305834    -0.0614749301
    8      C      -2.1502981193    -0.8562248007    -0.5871780765
    9      H      -1.6405840744    -0.0110060095     1.5695176149
   10      H      -1.4846668980     1.0707152391     1.8375256811
   11      H      -1.1039525249    -0.6701917357     2.3049988347
   12      C      -2.7165181870    -0.2259126239     1.6974050522
   13      H      -0.8481785034     1.6667014902    -1.7361778628
   14      H       0.4731312054     2.1144673687    -0.7248667429
   15      H      -1.1282468847     2.1349769353    -0.0823213656
 ----------------------------------------------------------------
 Molecular Point Group                 C1    NOp =  1
 Largest Abelian Subgroup              C1    NOp =  1
 Nuclear Repulsion Energy =   427.5992541764 hartrees
 There are       35 alpha and       35 beta electrons
 Applying Cartesian multipole field
    Component          Value
    ---------          -----
     (2,0,0)        1.00000E-11
     (0,2,0)        2.00000E-11
     (0,0,2)       -3.00000E-11
 Nucleus-field energy     =     0.0000000043 hartrees
 Requested basis set is 6-31+G(d)
 There are 57 shells and 183 basis functions
 A cutoff of  1.0D-11 yielded   1513 shell pairs
 There are     16191 function pairs
 Smallest overlap matrix eigenvalue = 1.90E-05
 Guess MOs from SCF MO coefficient file
 Reading MOs from coefficient file
 Reading MOs from coefficient file
 A restricted hybrid HF-DFT SCF calculation will be
 performed using Pulay DIIS extrapolation
 Exchange:     0.2000 Hartree-Fock + 0.0800 Slater + 0.7200 B88
 Correlation:  0.1900 VWN1RPA + 0.8100 LYP
 Using SG-1 standard quadrature grid
 SCF converges when DIIS error is below 1.0E-08
Geometry optimization detected.  Setting ReadMinima to 0
Setting SaveMinima to 0
 CPU 0.00 s  wall 0.00 s
 CPU 6.82 s  wall 6.82 s
 ---------------------------------------
  Cycle       Energy         DIIS Error
 ---------------------------------------
    1    -494.2603031519      3.10E-03
 CPU 0.00 s  wall 0.00 s
 CPU 5.15 s  wall 5.15 s
    2    -494.2563204678      7.29E-04
 CPU 0.00 s  wall 0.00 s
 CPU 5.14 s  wall 5.14 s
    3    -494.2446966614      1.68E-03
 CPU 0.00 s  wall 0.00 s
 CPU 5.14 s  wall 5.14 s
    4    -494.2585502633      3.43E-04
 CPU 0.00 s  wall 0.00 s
 CPU 5.08 s  wall 5.08 s
    5    -494.2591017266      1.20E-04
 CPU 0.00 s  wall 0.00 s
 CPU 5.02 s  wall 5.02 s
    6    -494.2591643802      5.70E-05
 CPU 0.00 s  wall 0.00 s
 CPU 4.98 s  wall 4.98 s
    7    -494.2591747499      3.07E-05
 CPU 0.00 s  wall 0.00 s
 CPU 4.95 s  wall 4.95 s
    8    -494.2591785457      1.92E-05
 CPU 0.00 s  wall 0.00 s
 CPU 4.90 s  wall 4.90 s
    9    -494.2591805862      8.40E-06
 CPU 0.00 s  wall 0.00 s
 CPU 4.86 s  wall 4.86 s
   10    -494.2591809856      3.27E-06
 CPU 0.00 s  wall 0.00 s
 CPU 4.82 s  wall 4.82 s
   11    -494.2591810648      2.06E-06
 CPU 0.00 s  wall 0.00 s
 CPU 4.80 s  wall 4.80 s
   12    -494.2591810990      8.20E-07
 CPU 0.00 s  wall 0.00 s
 CPU 4.74 s  wall 4.74 s
   13    -494.2591811039      4.23E-07
 CPU 0.00 s  wall 0.00 s
 CPU 4.67 s  wall 4.67 s
   14    -494.2591811042      1.05E-07
 CPU 0.00 s  wall 0.00 s
 CPU 4.61 s  wall 4.61 s
   15    -494.2591811042      4.12E-08
 CPU 0.00 s  wall 0.00 s
 CPU 4.54 s  wall 4.54 s
   16    -494.2591811043      2.88E-08
 CPU 0.00 s  wall 0.00 s
 CPU 4.37 s  wall 4.37 s
   17    -494.2591811046      8.96E-09 Convergence criterion met
 ---------------------------------------
 SCF time:  CPU 198.00 s  wall 197.12 s
 SCF   energy in the final basis set = -494.2591811046
 Total energy in the final basis set = -494.2591811046
 
 --------------------------------------------------------------
 
                    Orbital Energies (a.u.)
 --------------------------------------------------------------
 
 Alpha MOs
 -- Occupied --
-19.063 -18.995 -18.829 -18.812 -10.027 -10.014  -9.950  -9.911
 -9.892  -0.902  -0.872  -0.746  -0.658  -0.477  -0.396  -0.390
 -0.372  -0.354  -0.262  -0.247  -0.200  -0.174  -0.158  -0.125
 -0.115  -0.106  -0.058  -0.006   0.014   0.024   0.029   0.038
  0.058   0.089   0.118
 -- Virtual --
  0.171   0.182   0.195   0.235   0.250   0.251   0.259   0.262
  0.268   0.282   0.283   0.291   0.299   0.311   0.321   0.322
  0.328   0.333   0.338   0.339   0.346   0.360   0.375   0.389
  0.396   0.411   0.416   0.427   0.431   0.454   0.461   0.480
  0.486   0.503   0.528   0.537   0.549   0.557   0.565   0.576
  0.578   0.593   0.594   0.605   0.631   0.648   0.666   0.701
  0.726   0.750   0.762   0.827   0.939   0.963   0.982   0.988
  1.000   1.010   1.039   1.054   1.069   1.076   1.096   1.123
  1.135   1.142   1.174   1.197   1.205   1.231   1.258   1.272
  1.289   1.324   1.364   1.392   1.409   1.423   1.463   1.508
  1.522   1.544   1.561   1.591   1.602   1.621   1.635   1.649
  1.673   1.692   1.705   1.776   1.782   1.803   1.832   1.859
  1.866   1.911   1.927   1.952   1.973   2.013   2.019   2.026
  2.036   2.080   2.097   2.120   2.147   2.163   2.185   2.193
  2.222   2.252   2.263   2.288   2.343   2.379   2.433   2.453
  2.534   2.556   2.615   2.644   2.675   2.691   2.704   2.743
  2.786   2.859   2.930   2.992   3.072   3.124   3.225   3.327
  3.347   3.388   3.457   4.243   4.411   4.459   4.541   4.564
  4.634   4.697   4.760   4.946
 --------------------------------------------------------------
 
          Ground-State Mulliken Net Atomic Charges

     Atom                 Charge (a.u.)
  ----------------------------------------
      1 C                     0.535315
      2 O                    -0.512799
      3 O                    -0.591091
      4 C                    -1.414889
      5 O                    -0.521770
      6 C                    -0.681720
      7 O                     0.372335
      8 C                     0.015213
      9 H                     0.051858
     10 H                    -0.005481
     11 H                    -0.002056
     12 C                    -0.630545
     13 H                     0.454469
     14 H                     0.507209
     15 H                     0.423953
  ----------------------------------------
  Sum of atomic charges =    -2.000000

 -----------------------------------------------------------------
                    Cartesian Multipole Moments
 -----------------------------------------------------------------
    Charge (ESU x 10^10)
                -9.6064
    Dipole Moment (Debye)
         X       0.4716      Y       5.7105      Z      -6.1712
       Tot       8.4212
    Quadrupole Moments (Debye-Ang)
        XX    -125.0487     XY       3.2658     YY     -77.3414
        XZ      18.3364     YZ     -12.2120     ZZ    -104.2196
    Octopole Moments (Debye-Ang^2)
       XXX      79.5911    XXY      22.8788    XYY       6.6818
       YYY      23.5941    XXZ     -72.4153    XYZ      -5.9086
       YYZ      -6.1165    XZZ      56.2556    YZZ      25.1843
       ZZZ     -32.0884
    Hexadecapole Moments (Debye-Ang^3)
      XXXX   -1784.7286   XXXY      28.3726   XXYY    -355.6291
      XYYY      34.5874   YYYY    -507.1578   XXXZ     267.9016
      XXYZ     -22.9471   XYYZ      47.4710   YYYZ     -57.0896
      XXZZ    -501.3952   XYZZ      -0.3896   YYZZ    -238.8449
      XZZZ     271.5667   YZZZ     -68.9735   ZZZZ    -917.4672
 -----------------------------------------------------------------
 Calculating analytic gradient of the SCF energy
 CPU 0.00 s  wall 0.00 s
 CPU 8.07 s  wall 8.07 s
 Gradient of SCF Energy
            1           2           3           4           5           6
    1   0.0014396   0.0063738   0.0040794  -0.1048666   0.0149835   0.0040379
    2   0.0156946  -0.0168869  -0.0066574   0.0427170  -0.0600026  -0.0080270
    3   0.0044672   0.0048443  -0.0077015   0.0303054   0.0083930   0.0161090
            7           8           9          10          11          12
    1   0.0727082  -0.0214570   0.0035553   0.0266522   0.0242928  -0.0184145
    2   0.0356427  -0.0193142   0.0009961  -0.0249042   0.0229573  -0.0102366
    3   0.0425831  -0.0445767   0.0222818   0.0027760  -0.0174890  -0.0411051
           13          14          15
    1  -0.0137913   0.0134486  -0.0130419
    2   0.0018708   0.0158799   0.0102705
    3  -0.0167715  -0.0050950   0.0009790
 Max gradient component =       1.049E-01
 RMS gradient           =       2.849E-02
 Gradient time:  CPU 61.36 s  wall 61.33 s
 Geometry Optimization Parameters
   NAtoms,    NIC,     NZ,  NCons,   NDum,   NFix, NCnnct, MaxDiis
       15     170       0       0       0       0       0       0

 Cartesian Hessian Update
 Hessian Updated using Powell/Murtagh-Sargent Update
  Mixing factors:     0.702251 Powell
                      0.297749 Murtagh-Sargent


** GEOMETRY OPTIMIZATION IN DELOCALIZED INTERNAL COORDINATES **
   Searching for a Transition State

   Optimization Cycle:   6

                       Coordinates (Angstroms)
     ATOM                X               Y               Z
      1  C         1.6506481355   -0.1365725775    0.2136710603
      2  O         1.7771478732    0.9785362354    0.7843353194
      3  O         2.4928435090   -1.0784097076    0.1817793149
      4  C         0.3697432710   -0.4061772174   -0.6772609522
      5  O        -0.4400244300    1.6423084894   -0.7747810548
      6  C         0.5591655888   -1.0708314280   -1.7619014175
      7  O        -1.1654465314   -0.3828305834   -0.0614749301
      8  C        -2.1502981193   -0.8562248007   -0.5871780765
      9  H        -1.6405840744   -0.0110060095    1.5695176149
     10  H        -1.4846668980    1.0707152391    1.8375256811
     11  H        -1.1039525249   -0.6701917357    2.3049988347
     12  C        -2.7165181870   -0.2259126239    1.6974050522
     13  H        -0.8481785034    1.6667014902   -1.7361778628
     14  H         0.4731312054    2.1144673687   -0.7248667429
     15  H        -1.1282468847    2.1349769353   -0.0823213656
   Point Group: c1    Number of degrees of freedom:    39


   Energy is   -494.259181105

 Hessian Updated using Powell/Murtagh-Sargent Update
[...]
 C         -0.301 -0.079  0.257   -0.096  0.216 -0.020   -0.080  0.201 -0.014
 H          0.418  0.360  0.220   -0.270 -0.206 -0.375   -0.435 -0.199 -0.300
 H          0.047  0.085 -0.100   -0.469 -0.040 -0.168   -0.173 -0.064 -0.148
 H         -0.261  0.335 -0.208    0.516 -0.166  0.080    0.348 -0.091 -0.017
 C          0.094  0.107 -0.062   -0.131 -0.018  0.031   -0.118  0.038 -0.069
 H         -0.045  0.004  0.048    0.035  0.017 -0.049   -0.057 -0.034  0.151
 H         -0.026  0.012  0.034    0.014 -0.006 -0.009   -0.054  0.012  0.022
 H         -0.021  0.016  0.056    0.000  0.102 -0.183   -0.063 -0.154  0.307
 TransDip  -0.036  0.054  0.018    0.095 -0.097 -0.134   -0.007 -0.062  0.009

 Mode:                13                     14                     15
 Frequency:       200.27                 240.55                 267.88
 Force Cnst:      0.0260                 0.3109                 0.4465
 Red. Mass:       1.1002                 9.1196                10.5610
 IR Active:          YES                    YES                    YES
 IR Intens:       86.422                 31.243                  9.011
 Raman Active:       YES                    YES                    YES
               X      Y      Z        X      Y      Z        X      Y      Z
 C         -0.003 -0.008  0.002    0.138 -0.161 -0.031   -0.074 -0.090  0.109
 O         -0.016 -0.013 -0.006   -0.117 -0.281 -0.217    0.076 -0.001 -0.191
 O          0.006  0.016 -0.005    0.060  0.194  0.205    0.084  0.080 -0.071
 C         -0.004 -0.018  0.013    0.295 -0.219 -0.092   -0.328 -0.303  0.470
 O          0.010  0.014 -0.017   -0.099  0.096  0.032   -0.097 -0.025  0.103
 C         -0.005  0.016  0.001   -0.234  0.375  0.140    0.298  0.319 -0.348
 O          0.030 -0.023  0.005   -0.003  0.007 -0.006    0.000  0.000  0.006
 C         -0.023  0.037  0.010    0.000 -0.005  0.000    0.006  0.002 -0.003
 H         -0.549 -0.232  0.118    0.090  0.000 -0.115    0.062  0.024 -0.063
 H          0.669 -0.050  0.299   -0.167 -0.017 -0.119   -0.125 -0.012 -0.096
 H         -0.221 -0.141  0.114    0.201  0.000 -0.039    0.127  0.036 -0.047
 C         -0.002  0.019 -0.037    0.022 -0.009 -0.013    0.008  0.010 -0.014
 H          0.009  0.004 -0.028   -0.328  0.056 -0.151    0.053  0.090 -0.120
 H          0.024 -0.005 -0.006    0.165 -0.214  0.067   -0.024 -0.023  0.022
 H          0.026 -0.016  0.002   -0.064  0.158  0.075   -0.038 -0.221  0.174
 TransDip   0.055 -0.179  0.231    0.133 -0.110 -0.047   -0.047 -0.056  0.063

 Mode:                16                     17                     18
 Frequency:       408.66                 461.47                 559.69
 Force Cnst:      0.5125                 0.8658                 2.2691
 Red. Mass:       5.2086                 6.9002                12.2944
 IR Active:          YES                    YES                    YES
 IR Intens:      313.203                 20.424                 22.857
 Raman Active:       YES                    YES                    YES
               X      Y      Z        X      Y      Z        X      Y      Z
 C         -0.132  0.012 -0.075    0.018 -0.035 -0.009   -0.152  0.093 -0.091
 O         -0.119 -0.013 -0.058   -0.032 -0.118 -0.063   -0.263  0.104 -0.141
 O         -0.146  0.152 -0.046    0.017  0.092  0.058   -0.167 -0.359 -0.292
 C         -0.034 -0.107 -0.067    0.056 -0.097 -0.036    0.428 -0.076  0.243
 O          0.338  0.015  0.251   -0.184  0.381  0.081   -0.036  0.118  0.040
 C         -0.052 -0.067 -0.069    0.227 -0.406 -0.093    0.307  0.168  0.356
 O         -0.001  0.001  0.000   -0.001  0.000 -0.001    0.000  0.001  0.001
 C          0.001 -0.003 -0.002    0.000 -0.001  0.001    0.000 -0.001  0.000
 H         -0.013 -0.042 -0.088    0.003  0.010  0.022    0.008 -0.003 -0.023
 H         -0.041 -0.045 -0.059   -0.011  0.019  0.010   -0.004 -0.013 -0.014
 H          0.182 -0.022 -0.014   -0.079  0.005  0.006    0.054 -0.002 -0.007
 C          0.018 -0.007 -0.010   -0.003  0.001  0.004    0.005  0.000 -0.004
 H          0.443 -0.360  0.024    0.265  0.089  0.291    0.222 -0.064  0.082
 H          0.325 -0.001  0.237   -0.338  0.293 -0.029    0.068  0.115  0.072
 H          0.340  0.049  0.220   -0.190  0.356  0.092    0.031 -0.053  0.112
 TransDip   0.511 -0.239  0.053   -0.094  0.092  0.060    0.139 -0.064  0.007

 Mode:                19                     20                     21
 Frequency:       637.87                 662.77                 735.30
 Force Cnst:      0.2563                 2.9803                 0.3395
 Red. Mass:       1.0693                11.5157                 1.0659
 IR Active:          YES                    YES                    YES
 IR Intens:      135.255                 91.891                 24.438
 Raman Active:       YES                    YES                    YES
               X      Y      Z        X      Y      Z        X      Y      Z
 C          0.001  0.007 -0.011    0.103 -0.063  0.109    0.014  0.013 -0.015
 O          0.004  0.008 -0.007   -0.255 -0.272 -0.334   -0.020 -0.008  0.026
 O         -0.008 -0.006  0.000    0.166 -0.117  0.056   -0.001 -0.004  0.004
 C          0.006 -0.012  0.009   -0.265  0.642  0.089   -0.008 -0.002  0.008
 O          0.021 -0.043  0.017    0.094 -0.009  0.068   -0.018 -0.012 -0.031
 C          0.026  0.015 -0.018    0.113 -0.022  0.077    0.015  0.005 -0.017
 O         -0.001  0.000 -0.003    0.000  0.000 -0.001    0.000  0.000  0.000
 C          0.000  0.000  0.001    0.000 -0.002  0.000    0.000 -0.001 -0.001
 H         -0.031 -0.009  0.023    0.011 -0.002 -0.020   -0.093 -0.054 -0.036
 H         -0.003  0.022  0.016    0.011 -0.013 -0.004   -0.110 -0.016 -0.063
 H         -0.090 -0.009  0.019    0.053 -0.007 -0.004   -0.097  0.000  0.001
 C          0.000 -0.002  0.008    0.001 -0.004 -0.004    0.021  0.003  0.002
 H         -0.220 -0.171  0.210    0.161 -0.133  0.035   -0.221 -0.147  0.213
 H         -0.044 -0.078  0.116    0.183 -0.219  0.075    0.233  0.079 -0.418
 H         -0.281  0.798 -0.354    0.078  0.119  0.025    0.420  0.319  0.573
 TransDip  -0.354  0.111  0.027    0.282 -0.041  0.115    0.003  0.151  0.047

 Mode:                22                     23                     24
 Frequency:       780.42                 833.30                 883.79
 Force Cnst:      3.6879                 0.4966                 6.2511
 Red. Mass:      10.2772                 1.2138                13.5834
 IR Active:          YES                    YES                    YES
 IR Intens:       35.606                296.236                 48.514
 Raman Active:       YES                    YES                    YES
               X      Y      Z        X      Y      Z        X      Y      Z
 C         -0.464 -0.271  0.594   -0.006 -0.004  0.013   -0.191 -0.348 -0.311
 O          0.119  0.079 -0.126    0.000  0.005  0.003    0.380 -0.314  0.142
 O          0.119  0.076 -0.164    0.004  0.000 -0.002   -0.351  0.273 -0.147
 C          0.189  0.075 -0.213    0.003 -0.002 -0.004    0.002  0.313  0.131
 O         -0.015 -0.013 -0.008   -0.007 -0.001 -0.005   -0.050 -0.019 -0.042
 C         -0.024 -0.016  0.015    0.004 -0.001 -0.007    0.212  0.105  0.232
 O          0.000  0.000  0.001   -0.002 -0.001 -0.003    0.000  0.000  0.000
 C          0.000 -0.001 -0.001    0.002  0.001  0.004    0.000  0.000  0.000
 H         -0.100 -0.053 -0.021    0.454  0.243  0.075    0.022  0.013  0.006
 H         -0.111 -0.004 -0.058    0.506  0.017  0.263    0.026  0.002  0.015
 H         -0.126  0.003  0.004    0.573 -0.016 -0.022    0.029 -0.001  0.000
 C          0.025  0.005  0.005   -0.130 -0.025 -0.028   -0.007  0.000  0.000
 H         -0.101 -0.030  0.018   -0.077 -0.053  0.069    0.045 -0.009  0.122
 H          0.083  0.042 -0.157    0.065  0.013 -0.091    0.023  0.110 -0.021
 H          0.102  0.245  0.163    0.071  0.121  0.097   -0.011  0.009  0.016
 TransDip  -0.148  0.000  0.120    0.456 -0.298  0.085   -0.128 -0.108 -0.147

 Mode:                25                     26                     27
 Frequency:      1108.75                1256.26                1354.88
 Force Cnst:      0.7812                 4.3138                 1.2224
 Red. Mass:       1.0785                 4.6392                 1.1302
 IR Active:          YES                    YES                    YES
 IR Intens:       67.057               1294.113                630.292
 Raman Active:       YES                    YES                    YES
               X      Y      Z        X      Y      Z        X      Y      Z
 C         -0.004 -0.015 -0.003   -0.026  0.398  0.165    0.021  0.024  0.034
 O         -0.013 -0.011 -0.010    0.104 -0.265 -0.038    0.020 -0.001 -0.002
 O          0.016 -0.003  0.010   -0.095 -0.012 -0.080   -0.025  0.002 -0.017
 C          0.002 -0.006 -0.007    0.029 -0.036  0.004   -0.002  0.002 -0.004
 O          0.014 -0.029 -0.024    0.062 -0.023  0.020   -0.005  0.056 -0.041
 C         -0.030  0.043 -0.010   -0.028  0.001 -0.020    0.003  0.003 -0.020
 O          0.000  0.000  0.000   -0.002 -0.002 -0.002    0.002  0.001  0.002
 C          0.000  0.000  0.000    0.002  0.003  0.003   -0.002 -0.002 -0.003
 H          0.001  0.001  0.007    0.005  0.005  0.042    0.003 -0.004 -0.031
 H          0.002  0.004  0.002    0.007  0.042  0.018   -0.001 -0.030 -0.011
 H         -0.003 -0.001  0.002    0.003  0.005 -0.004   -0.008  0.001  0.001
 C         -0.001  0.000  0.000   -0.007 -0.003 -0.002    0.003  0.003  0.002
 H          0.321  0.048  0.765   -0.312  0.528  0.086   -0.265 -0.451  0.486
 H         -0.156  0.494 -0.058   -0.448 -0.072 -0.334    0.110 -0.486  0.359
 H         -0.045 -0.136 -0.104    0.005 -0.040 -0.013    0.043 -0.316  0.007
 TransDip  -0.132  0.191  0.121   -0.868  0.755  0.057    0.648 -0.316  0.357

 Mode:                28                     29                     30
 Frequency:      1458.42                1468.34                1518.58
 Force Cnst:      1.3568                 1.3709                 1.8954
 Red. Mass:       1.0827                 1.0792                 1.3950
 IR Active:          YES                    YES                    YES
 IR Intens:        9.487                  1.886               1866.543
 Raman Active:       YES                    YES                    YES
               X      Y      Z        X      Y      Z        X      Y      Z
 C         -0.005 -0.006 -0.006   -0.002 -0.002 -0.002    0.096  0.021  0.078
 O         -0.002  0.004  0.000   -0.001  0.002  0.000    0.013 -0.009  0.002
 O          0.004  0.000  0.003    0.001  0.000  0.001   -0.065  0.008 -0.046
 C          0.000  0.001  0.000    0.000  0.000  0.000    0.001 -0.004  0.001
 O          0.006  0.005  0.002    0.001  0.001  0.000   -0.068 -0.028 -0.036
 C          0.003  0.000  0.001    0.001  0.000  0.000   -0.035  0.000 -0.012
 O          0.000  0.000  0.000    0.001  0.000  0.000    0.000  0.000  0.000
 C          0.000  0.000  0.000    0.000  0.000  0.000    0.000  0.000  0.001
 H         -0.231  0.053  0.681   -0.133 -0.192 -0.270   -0.027  0.005  0.062
 H         -0.283  0.536  0.090    0.038  0.455  0.295   -0.029  0.062  0.016
 H          0.254 -0.149  0.045    0.037  0.579 -0.484    0.036 -0.006 -0.004
 C          0.021 -0.036 -0.069    0.005 -0.071  0.038    0.003 -0.006 -0.008
 H         -0.064 -0.039  0.016   -0.008 -0.004  0.007    0.723  0.194  0.014
 H         -0.019 -0.010 -0.026   -0.013 -0.009  0.001    0.362 -0.216  0.317
 H          0.001 -0.042 -0.002    0.003 -0.006  0.005    0.071  0.306  0.148
 TransDip  -0.050 -0.041 -0.074   -0.024  0.030 -0.021    1.244 -0.175  0.580

 Mode:                31                     32                     33
 Frequency:      1581.32                1689.29                1817.80
 Force Cnst:      1.8877                 4.5220                 2.0840
 Red. Mass:       1.2813                 2.6895                 1.0704
 IR Active:          YES                    YES                    YES
 IR Intens:     1076.843                 85.333                310.080
 Raman Active:       YES                    YES                    YES
               X      Y      Z        X      Y      Z        X      Y      Z
 C          0.095  0.002  0.076    0.249 -0.152  0.122   -0.008  0.038  0.009
 O         -0.003 -0.013  0.007   -0.051  0.067 -0.015    0.013 -0.029 -0.010
 O         -0.058  0.009 -0.043   -0.137  0.038 -0.088    0.007 -0.007  0.003
 C         -0.002  0.001  0.001    0.006  0.010  0.010   -0.002 -0.002 -0.002
 O         -0.021  0.013  0.034    0.061 -0.006  0.003   -0.011 -0.016 -0.037
 C         -0.003 -0.010 -0.012    0.000 -0.008 -0.010    0.003 -0.004 -0.001
 O          0.001  0.001  0.001   -0.001 -0.001 -0.001    0.000  0.000  0.000
 C         -0.001 -0.001 -0.001    0.001  0.001  0.001    0.000  0.000  0.000
 H         -0.013 -0.006 -0.009    0.008  0.000 -0.003   -0.005  0.003  0.007
 H         -0.007  0.004  0.001    0.007 -0.008 -0.003   -0.006  0.008  0.005
 H         -0.006  0.010 -0.008   -0.005 -0.002  0.003    0.013  0.000 -0.001
 C          0.005 -0.001  0.001   -0.002  0.001  0.001    0.000 -0.002 -0.002
 H         -0.167 -0.291 -0.111   -0.315  0.142 -0.025   -0.186 -0.206 -0.218
 H          0.606  0.428 -0.303   -0.828  0.071 -0.016   -0.038  0.589  0.675
 H         -0.255 -0.184 -0.334    0.153  0.009  0.161    0.160  0.065  0.191
 TransDip   1.022 -0.137  0.205   -0.274 -0.061  0.093    0.481  0.060  0.288

 Mode:                34                     35                     36
 Frequency:      2021.19                2144.68                2925.11
 Force Cnst:     28.3982                35.9057                 5.1571
 Red. Mass:      11.7985                13.2492                 1.0230
 IR Active:          YES                    YES                    YES
 IR Intens:       41.609                560.666                207.512
 Raman Active:       YES                    YES                    YES
               X      Y      Z        X      Y      Z        X      Y      Z
 C         -0.066 -0.051 -0.074   -0.001 -0.003 -0.001    0.000  0.000  0.000
 O          0.009 -0.010  0.002   -0.001  0.002  0.000    0.000  0.000  0.000
 O          0.000 -0.003 -0.002    0.001  0.000  0.000    0.000  0.000  0.000
 C          0.464  0.256  0.532    0.001  0.002  0.001    0.000  0.000  0.000
 O          0.005 -0.002  0.002   -0.001  0.004 -0.002    0.000  0.000  0.000
 C         -0.410 -0.178 -0.453    0.000  0.001 -0.002    0.000  0.000  0.000
 O          0.001  0.001  0.001   -0.358 -0.279 -0.386    0.001  0.001  0.001
 C         -0.001 -0.001 -0.002    0.475  0.373  0.515   -0.002 -0.001 -0.002
 H          0.001  0.000  0.000   -0.007 -0.054  0.010    0.195 -0.476  0.117
 H          0.001  0.000  0.001   -0.021  0.013 -0.028    0.199  0.227 -0.476
 H          0.000  0.000 -0.001   -0.050  0.018  0.012   -0.004  0.399  0.493
 C          0.000  0.000  0.000    0.007  0.002  0.000   -0.033 -0.013 -0.011
 H         -0.058 -0.083 -0.085    0.004 -0.052  0.006    0.002 -0.006 -0.002
 H         -0.020  0.018 -0.005    0.037 -0.007  0.018    0.005  0.001  0.003
 H          0.001 -0.013 -0.003   -0.012 -0.054  0.015   -0.007 -0.002  0.007
 TransDip  -0.160 -0.011 -0.130    0.358 -0.652  0.147   -0.357 -0.279 -0.090

 Mode:                37                     38                     39
 Frequency:      3001.63                3020.72                3514.96
 Force Cnst:      5.8376                 5.9283                 7.7591
 Red. Mass:       1.0997                 1.1027                 1.0659
 IR Active:          YES                    YES                    YES
 IR Intens:      137.907                105.176                748.445
 Raman Active:       YES                    YES                    YES
               X      Y      Z        X      Y      Z        X      Y      Z
 C          0.000  0.000  0.000    0.000  0.000  0.000   -0.001  0.000  0.000
 O          0.000  0.000  0.000    0.000  0.000  0.000    0.001  0.000  0.000
 O          0.000  0.000  0.000    0.000  0.000  0.000    0.000  0.000  0.000
 C          0.000  0.000  0.000    0.000  0.000  0.000    0.000  0.000  0.000
 O          0.000  0.000  0.001   -0.001  0.000  0.001   -0.050 -0.001  0.036
 C          0.000  0.000  0.000    0.000  0.000  0.000    0.001 -0.001  0.000
 O          0.000  0.000  0.000   -0.001 -0.001 -0.001   -0.001  0.000 -0.001
 C          0.001  0.000  0.001    0.001  0.001  0.001    0.001  0.001  0.001
 H         -0.193  0.381 -0.134   -0.327  0.623 -0.158    0.005 -0.024  0.004
 H         -0.185 -0.213  0.358    0.299  0.269 -0.555   -0.005 -0.001  0.001
 H          0.056  0.480  0.591    0.002 -0.033  0.010    0.003  0.000  0.000
 C          0.027 -0.054 -0.068    0.002 -0.072  0.059    0.000  0.001 -0.001
 H         -0.003  0.005  0.001   -0.001  0.001  0.001   -0.011  0.021  0.008
 H         -0.005 -0.002 -0.004   -0.001 -0.001  0.000   -0.022 -0.006  0.002
 H          0.005  0.000 -0.008    0.018 -0.004 -0.010    0.803  0.026 -0.590
 TransDip   0.130 -0.199 -0.291    0.054 -0.247  0.210    0.843 -0.038 -0.235

 STANDARD THERMODYNAMIC QUANTITIES AT   298.15 K  AND     1.00 ATM

   This Molecule has  4 Imaginary Frequencies
   Zero point vibrational energy:       53.112 kcal/mol

   Atom    1 Element C  Has Mass   12.00000
   Atom    2 Element O  Has Mass   15.99491
   Atom    3 Element O  Has Mass   15.99491
   Atom    4 Element C  Has Mass   12.00000
   Atom    5 Element O  Has Mass   15.99491
   Atom    6 Element C  Has Mass   12.00000
   Atom    7 Element O  Has Mass   15.99491
   Atom    8 Element C  Has Mass   12.00000
   Atom    9 Element H  Has Mass    1.00783
   Atom   10 Element H  Has Mass    1.00783
   Atom   11 Element H  Has Mass    1.00783
   Atom   12 Element C  Has Mass   12.00000
   Atom   13 Element H  Has Mass    1.00783
   Atom   14 Element H  Has Mass    1.00783
   Atom   15 Element H  Has Mass    1.00783
   Molecular Mass:   130.026620 amu
   Principal axes and moments of inertia in amu*Bohr^2:
                             1           2           3
    Eigenvalues --     1159.55070  2894.78291  3448.97640
          X               0.99890    -0.04643    -0.00610
          Y               0.04648     0.99888     0.00865
          Z               0.00569    -0.00892     0.99994
   Rotational Symmetry Number is   1
   The Molecule is an Asymmetric Top
   Translational Enthalpy:        0.889 kcal/mol
   Rotational Enthalpy:           0.889 kcal/mol
   Vibrational Enthalpy:         58.889 kcal/mol
   gas constant (RT):             0.592 kcal/mol
   Translational Entropy:        40.501  cal/mol.K
   Rotational Entropy:           30.827  cal/mol.K
   Vibrational Entropy:          45.162  cal/mol.K

   Total Enthalpy:               61.259 kcal/mol
   Total Entropy:               116.489  cal/mol.K
Archival summary:
1\1\bt2600-16\FREQ\ProcedureUnspecified\6-31+G*\456(2-,1)\emavera\TueMay918:21:402017TueMay918:21:402017\0\\#,FREQ,ProcedureUnspecified,6-31+G*,\\-2,1\O\C,1,1.30335\O,2,1.24616,1,125.622\H,1,1.39275,2,111.642,3,174.602,0\O,4,1.11283,1,173.468,2,6.28421,0\H,5,0.986074,4,106.655,1,-116.225,0\H,5,1.20843,4,94.5919,1,1.19152,0\C,7,1.45704,5,153.903,4,1.70331,0\C,8,1.24798,7,98.2718,5,-8.886,0\H,6,2.38631,5,167.733,4,-166.579,0\C,10,1.10487,6,109.062,5,59.3118,0\H,11,1.10567,10,109.834,6,-18.1621,0\H,11,1.10629,10,107.743,6,100.022,0\O,10,3.01509,6,71.6968,5,-109.022,0\C,14,1.13961,10,98.2971,6,109.436,0\\\@

 Total job time:  2183.42s(wall), 2183.38s(cpu) 
 Tue May  9 18:21:40 2017

        *************************************************************
        *                                                           *
        *  Thank you very much for using Q-Chem.  Have a nice day.  *
        *                                                           *
        *************************************************************


0 sent ACK to 0 
now end server 0 ... 
cleanup process ... done
