
Running Job 1 of 1 reac_a.qcin
qchem reac_a.qcin_61802.0 /tmp/reac_a.qcin/ 1
/programs/x86_64/lib/qchem-4.3.2/bin/mpi/mpirun_qchem -machinefile /var/spool/torque/aux//113257.vali -np 1 /programs/x86_64/lib/qchem-4.3.2/exe/qcprog.exe reac_a.qcin_61802.0 /tmp/reac_a.qcin/

Process 0 of 1 is on bt2600-16.csail.mit.edu - thread support 0
initial socket setup ...start
initial socket setup ...done 
now start server 0 ... 

cmd = ssh thor /programs/x86_64/lib/qchem-4.3.2/bin/get_hostid 815491017 > /tmp/reac_a.qcin/lic.dat
                  Welcome to Q-Chem
     A Quantum Leap Into The Future Of Chemistry


 Q-Chem 4.3, Q-Chem, Inc., Pleasanton, CA (2015)

 Y. Shao,  Z. Gan,  E. Epifanovsky,  A. T. B. Gilbert,  M. Wormit,  
 J. Kussmann,  A. W. Lange,  A. Behn,  J. Deng,  X. Feng,  D. Ghosh,  
 M. Goldey,  P. R. Horn,  L. D. Jacobson,  I. Kaliman,  R. Z. Khaliullin,  
 T. Kus,  A. Landau,  J. Liu,  E. I. Proynov,  Y. M. Rhee,  R. M. Richard,  
 M. A. Rohrdanz,  R. P. Steele,  E. J. Sundstrom,  H. L. Woodcock III,  
 P. M. Zimmerman,  D. Zuev,  B. Albrecht,  E. Alguire,  B. Austin,  
 S. A. Baeppler,  G. J. O. Beran,  Y. A. Bernard,  E. Berquist,  
 K. Brandhorst,  K. B. Bravaya,  S. T. Brown,  D. Casanova,  C.-M. Chang,  
 Y. Chen,  S. H. Chien,  K. D. Closser,  D. L. Crittenden,  M. Diedenhofen,  
 R. A. DiStasio Jr.,  H. Do,  A. D. Dutoi,  R. G. Edgar,  P.-T. Fang,  
 S. Fatehi,  Q. Feng,  L. Fusti-Molnar,  A. Ghysels,  
 A. Golubeva-Zadorozhnaya,  J. Gomes,  A. Gunina,  M. W. D. Hanson-Heine,  
 P. H. P. Harbach,  A. W. Hauser,  E. G. Hohenstein,  Z. C. Holden,  K. Hui,  
 T.-C. Jagau,  H. Ji,  B. Kaduk,  K. Khistyaev,  Jaehoon Kim,  Jihan Kim,  
 R. A. King,  P. Klunzinger,  D. Kosenkov,  T. Kowalczyk,  C. M. Krauter,  
 K. U. Lao,  A. Laurent,  K. V. Lawler,  S. Lehtola,  S. V. Levchenko,  
 C. Y. Lin,  Y.-S. Lin,  F. Liu,  E. Livshits,  R. C. Lochan,  A. Luenser,  
 P. Manohar,  S. F. Manzer,  S.-P. Mao,  N. Mardirossian,  A. V. Marenich,  
 L. A. Martinez-Martinez,  S. A. Maurer,  N. J. Mayhall,  K. Nanda,  
 C. M. Oana,  R. Olivares-Amaya,  D. P. O'Neill,  J. A. Parkhill,  
 T. M. Perrine,  R. Peverati,  P. A. Pieniazek,  F. Plasser,  A. Prociuk,  
 D. R. Rehn,  E. Rosta,  N. J. Russ,  N. Sergueev,  S. M. Sharada,  
 S. Sharma,  D. W. Small,  A. Sodt,  T. Stauch,  T. Stein,  D. Stuck,  
 Y.-C. Su,  A. J. W. Thom,  T. Tsuchimochi,  L. Vogt,  O. Vydrov,  T. Wang,  
 M. A. Watson,  J. Wenzel,  A. White,  C. F. Williams,  V. Vanovschi,  
 S. Yeganeh,  S. R. Yost,  Z.-Q. You,  I. Y. Zhang,  X. Zhang,  Y. Zhao,  
 B. R. Brooks,  G. K. L. Chan,  D. M. Chipman,  C. J. Cramer,  
 W. A. Goddard III,  M. S. Gordon,  W. J. Hehre,  A. Klamt,  
 H. F. Schaefer III,  M. W. Schmidt,  C. D. Sherrill,  D. G. Truhlar,  
 A. Warshel,  X. Xu,  A. Aspuru-Guzik,  R. Baer,  A. T. Bell,  N. A. Besley,  
 J.-D. Chai,  A. Dreuw,  B. D. Dunietz,  T. R. Furlani,  S. R. Gwaltney,  
 C.-P. Hsu,  Y. Jung,  J. Kong,  D. S. Lambrecht,  W. Liang,  C. Ochsenfeld,  
 V. A. Rassolov,  L. V. Slipchenko,  J. E. Subotnik,  T. Van Voorhis,  
 J. M. Herbert,  A. I. Krylov,  P. M. W. Gill,  M. Head-Gordon

 Contributors to earlier versions of Q-Chem not listed above: 
 R. D. Adamson,  J. Baker,  E. F. C. Byrd,  A. K. Chakraborty,  C.-L. Cheng,  
 H. Dachsel,  R. J. Doerksen,  G. Hawkins,  A. Heyden,  S. Hirata,  
 G. Kedziora,  F. J. Keil,  C. Kelley,  P. P. Korambath,  W. Kurlancheek,  
 A. M. Lee,  M. S. Lee,  D. Liotard,  I. Lotan,  P. E. Maslen,  N. Nair,  
 D. Neuhauser,  R. Olson,  B. Peters,  J. Ritchie,  N. E. Schultz,  
 N. Shenvi,  A. C. Simmonett,  K. S. Thanthiriwatte,  Q. Wu,  W. Zhang

 Please cite Q-Chem as follows:
 Y. Shao et al., Mol. Phys. 113, 184-215 (2015)
 DOI: 10.1080/00268976.2014.952696

 Q-Chem 4.3.0 for Intel X86 Linux

 Parts of Q-Chem use Armadillo 5.200.1 (Boston Tea Smuggler).
 http://arma.sourceforge.net/

 Q-Chem begins on Wed Apr 26 13:13:34 2017  

Host: 
0

     Scratch files written to /tmp/reac_a.qcin//
 Oct1215 13750_ 19228  19214 4150   
 Parallel job on  1  processors
Processing $rem in /programs/x86_64/lib/qchem-4.3.2/config/preferences.
 MEM_TOTAL  2000 

Checking the input file for inconsistencies... 	...done.

--------------------------------------------------------------
User input:
--------------------------------------------------------------
$rem
JOBTYPE Opt
EXCHANGE HF
BASIS 6-31+G(d)
GUI=2
SOLVENT_METHOD ONSAGER
pdb_print 2
NBO TRUE
$end

$comment
reactantstate
$end

$solvent
CavityRadius    30
Dielectric     78.39
$end


$molecule
-2 1
C        3.29600       -0.86600        2.39400
O        4.50600       -1.03900        2.12000
O        2.92600       -0.95400        3.64500
C        2.15900       -0.62100        1.29800
C        1.96600       -1.76700        0.31200
O        0.94700       -0.47600        2.01100
C        2.44300        0.67600        0.56700
O        1.59900        1.61900        0.54700
C        3.71800        0.81000       -0.11300
H        4.08300       -0.17800       -0.30800
H        4.36500        1.05500        0.71800
H        3.63500        1.42000       -1.07500
H        1.31600       -1.57200       -0.59100
H        1.23900       -2.36100        0.98400
H        2.92900       -2.26400        0.05400
$end

--------------------------------------------------------------
 ----------------------------------------------------------------
             Standard Nuclear Orientation (Angstroms)
    I     Atom           X                Y                Z
 ----------------------------------------------------------------
    1      C       1.2830026172     0.3480087442     0.1757525102
    2      O       1.4934056190     1.5315674351    -0.1764184740
    3      O       2.1928813064    -0.2544305993     0.8960528699
    4      C       0.0033976121    -0.5007857955    -0.2671570292
    5      C      -0.1235337544    -0.7266461583    -1.7690346956
    6      O       0.1441290242    -1.7719361619     0.3350965849
    7      C      -1.2456791660     0.1558269821     0.2859187909
    8      O      -2.0389819342    -0.4731875828     1.0455215787
    9      C      -1.5093668175     1.5352694735    -0.0795784529
   10      H      -0.9793072782     1.7331128758    -0.9891326695
   11      H      -0.8498404139     2.0541798246     0.6022954141
   12      H      -2.6255809964     1.7483281599    -0.1940551011
   13      H      -1.0985184199    -1.1507776935    -2.1504155327
   14      H       0.5493344011    -1.6645924767    -1.7903454717
   15      H       0.2255176351     0.1536051048    -2.3557738550
 ----------------------------------------------------------------
 Molecular Point Group                 C1    NOp =  1
 Largest Abelian Subgroup              C1    NOp =  1
 Nuclear Repulsion Energy =   453.4532808087 hartrees
 There are       35 alpha and       35 beta electrons
 Requested basis set is 6-31+G(d)
 There are 57 shells and 183 basis functions

 Total QAlloc Memory Limit   2000 MB
 Mega-Array Size        61 MB
 MEM_STATIC part        62 MB
 A cutoff of  1.0D-11 yielded   1552 shell pairs
 There are     16644 function pairs
 
 -------------------------------------------------------
 OpenMP Integral Computing Module                       
 Release: version 1.0, May 2013, Q-Chem Inc. Pittsburgh 
 -------------------------------------------------------
 Integral Job Info:
 Integral job number is                      11
 Integral operator is                         1
 short-range coefficients                     0
 long-range coefficients              100000000
 Omega coefficients                           0
 if combine SR and LR in K                    0
 Integral screening is                        0
 Integral computing path is                   2
 max size of driver memory is            800000
 size of driver memory is                593474
 size of scratch memory is              2260544
 max col of scratch BK array               1296
 max len of scratch array in speh3          155
 max len of scratch index in speh4           18
 max int batch size is                      520
 min int batch size is                       52
 fixed nKL is                                52
 max L of basis functions is                  2
 order of int derivative is                   0
 number of shells is                         57
 number of basis is                         183
 number of cartesian basis is               183
 number of contracted shell pairs          1552
 number of primitive shell pairs           5383
 maxK2 (contraction) of shell pair           36
 max number of K2 of shell pair               1
 max number of CS2 of shell pair            205
 max number of PS2 of shell pair           1230
 mem total for path MDJ                   44296
 -------------------------------------------------------
 Smallest overlap matrix eigenvalue = 3.09E-05
 Placing solute cavity origin at the center of mass
 Center of Onsager solute cavity (Angst): (   0.036391,  -0.021891,   0.052396)
 Solvent multipole matrices computed through 15th order

 Scale SEOQF with 1.000000e-01/1.000000e-01/1.000000e-01

 Standard Electronic Orientation quadrupole field applied
 Guess from superposition of atomic densities
 Warning:  Energy on first SCF cycle will be non-variational
 A restricted Hartree-Fock SCF calculation will be
 performed using Pulay DIIS extrapolation
 Kirkwood-Onsager solvation model will be applied
 SCF converges when DIIS error is below 1.0E-08
 Kirkwood-Onsager SCRF: 
 Maximum multipole order     = 15
 Solvent dielectric constant = 78.3900
 Cavity radius               = 56.6917 bohr
 Born term (E_born)          = -0.03482849 a.u. = -21.8552 kcal/mol
 ---------------------------------------
  Cycle       Energy         DIIS Error
 ---------------------------------------
    1    -493.9487808272      5.11E-02
    2    -491.7389802366      1.00E-02
    3    -491.8872873367      8.73E-03
    4    -492.1280306287      9.58E-04
    5    -492.1329060112      4.94E-04
    6    -492.1340269492      1.12E-04
    7    -492.1341637717      4.86E-05
    8    -492.1341913566      2.11E-05
    9    -492.1341960441      8.57E-06
   10    -492.1341967544      3.42E-06
   11    -492.1341968876      1.07E-06
   12    -492.1341969065      4.58E-07
   13    -492.1341969102      1.91E-07
   14    -492.1341969112      8.90E-08
   15    -492.1341969117      4.74E-08
   16    -492.1341969113      1.84E-08
   17    -492.1341966436      1.08E-05
   18    -492.1341969113      6.06E-09 Convergence criterion met
 ---------------------------------------
 SCF time:  CPU 127.96 s  wall 127.04 s
 SCF   energy in the final basis set = -492.1341969113
 Total energy in the final basis set = -492.1341969113
 
 --------------------------------------------------------------
 
                    Orbital Energies (a.u.)
 --------------------------------------------------------------
 
 Alpha MOs
 -- Occupied --
-20.268 -20.190 -20.159 -20.099 -11.040 -11.010 -10.972 -10.959
-10.953  -1.058  -1.030  -0.901  -0.869  -0.765  -0.675  -0.559
 -0.446  -0.383  -0.354  -0.323  -0.316  -0.302  -0.275  -0.260
 -0.239  -0.214  -0.197  -0.177  -0.139  -0.103  -0.080  -0.044
 -0.040   0.005   0.017
 -- Virtual --
  0.272   0.288   0.316   0.334   0.342   0.350   0.360   0.367
  0.378   0.389   0.401   0.404   0.414   0.428   0.442   0.457
  0.470   0.486   0.503   0.514   0.553   0.585   0.596   0.613
  0.635   0.637   0.644   0.657   0.663   0.677   0.681   0.694
  0.703   0.710   0.713   0.732   0.742   0.767   0.775   0.785
  0.795   0.808   0.812   0.827   0.834   0.869   0.883   0.920
  0.933   0.995   1.075   1.101   1.157   1.179   1.198   1.224
  1.260   1.279   1.294   1.340   1.366   1.381   1.410   1.430
  1.447   1.451   1.479   1.501   1.527   1.559   1.595   1.608
  1.672   1.718   1.733   1.780   1.827   1.864   1.894   1.910
  1.927   1.954   1.973   1.986   1.992   2.017   2.025   2.056
  2.084   2.116   2.124   2.135   2.155   2.218   2.250   2.276
  2.340   2.362   2.380   2.407   2.428   2.452   2.464   2.506
  2.534   2.538   2.561   2.570   2.603   2.619   2.656   2.681
  2.705   2.744   2.763   2.770   2.792   2.844   2.882   2.915
  2.942   2.982   3.013   3.026   3.101   3.131   3.190   3.264
  3.304   3.327   3.393   3.466   3.535   3.658   3.705   3.745
  3.821   3.884   3.971   4.898   4.976   5.017   5.059   5.146
  5.231   5.280   5.413   5.601
 --------------------------------------------------------------
 
          Ground-State Mulliken Net Atomic Charges

     Atom                 Charge (a.u.)
  ----------------------------------------
      1 C                     0.490049
      2 O                    -0.763843
      3 O                    -0.760373
      4 C                     0.404844
      5 C                    -0.856214
      6 O                    -0.803172
      7 C                     0.370561
      8 O                    -0.587691
      9 C                    -0.670782
     10 H                     0.231570
     11 H                     0.257809
     12 H                     0.154339
     13 H                     0.145395
     14 H                     0.244429
     15 H                     0.143082
  ----------------------------------------
  Sum of atomic charges =    -2.000000

 -----------------------------------------------------------------
                    Cartesian Multipole Moments
 -----------------------------------------------------------------
    Charge (ESU x 10^10)
                -9.6064
    Dipole Moment (Debye)
         X      -6.0846      Y       4.7852      Z      -4.5511
       Tot       8.9796
    Quadrupole Moments (Debye-Ang)
        XX     -92.7375     XY      -7.3323     YY     -84.1219
        XZ      -0.1246     YZ       6.1360     ZZ     -67.9112
    Octopole Moments (Debye-Ang^2)
       XXX     -14.8704    XXY      -5.8392    XYY      -8.7396
       YYY       7.5771    XXZ     -22.6651    XYZ       1.4568
       YYZ       3.6637    XZZ       2.8131    YZZ       4.3515
       ZZZ      21.7129
    Hexadecapole Moments (Debye-Ang^3)
      XXXX    -906.8201   XXXY     -14.3285   XXYY    -240.6065
      XYYY      -9.9893   YYYY    -579.9975   XXXZ      -4.9015
      XXYZ       9.1073   XYYZ       1.7754   YYYZ       7.7023
      XXZZ    -211.7842   XYZZ       0.5734   YYZZ    -142.7028
      XZZZ      -6.0769   YZZZ      -9.0340   ZZZZ    -385.2403
 -----------------------------------------------------------------
 Calculating analytic gradient of the SCF energy
 Gradient of SCF Energy
            1           2           3           4           5           6
    1  -0.0975417   0.0330064   0.0640232  -0.0159403  -0.0248379   0.0172840
    2   0.0254957  -0.0028589  -0.0301550   0.0746509   0.0307055  -0.0350377
    3  -0.0402171   0.0144471   0.0424516  -0.0735524   0.0199913   0.0321110
            7           8           9          10          11          12
    1   0.0567851  -0.0435011   0.0180794   0.0050047   0.0178083  -0.0355890
    2   0.0826593  -0.0556466  -0.0192750  -0.0049228  -0.0198511  -0.0039204
    3  -0.0584191   0.0530749   0.0211692   0.0140944  -0.0111293  -0.0165008
           13          14          15
    1  -0.0129631   0.0130367   0.0053453
    2  -0.0203180  -0.0399562   0.0184303
    3  -0.0151736   0.0162899   0.0013630
 Max gradient component =       9.754E-02
 RMS gradient           =       3.769E-02
 Gradient time:  CPU 58.33 s  wall 58.56 s
 Geometry Optimization Parameters
   NAtoms,    NIC,     NZ,  NCons,   NDum,   NFix, NCnnct, MaxDiis
       15      95       0       0       0       0       0       0


** GEOMETRY OPTIMIZATION IN DELOCALIZED INTERNAL COORDINATES **
   Searching for a Minimum

   Optimization Cycle:   1

                       Coordinates (Angstroms)
     ATOM                X               Y               Z
      1  C         1.2830026172    0.3480087442    0.1757525102
      2  O         1.4934056190    1.5315674351   -0.1764184740
      3  O         2.1928813064   -0.2544305993    0.8960528699
      4  C         0.0033976121   -0.5007857955   -0.2671570292
      5  C        -0.1235337544   -0.7266461583   -1.7690346956
      6  O         0.1441290242   -1.7719361619    0.3350965849
      7  C        -1.2456791660    0.1558269821    0.2859187909
      8  O        -2.0389819342   -0.4731875828    1.0455215787
      9  C        -1.5093668175    1.5352694735   -0.0795784529
     10  H        -0.9793072782    1.7331128758   -0.9891326695
     11  H        -0.8498404139    2.0541798246    0.6022954141
     12  H        -2.6255809964    1.7483281599   -0.1940551011
     13  H        -1.0985184199   -1.1507776935   -2.1504155327
     14  H         0.5493344011   -1.6645924767   -1.7903454717
     15  H         0.2255176351    0.1536051048   -2.3557738550
   Point Group: c1    Number of degrees of freedom:    39


   Energy is   -492.134196911


 Attempting to Generate Delocalized Internal Coordinates

 39 Hessian modes will be used to form the next step
  Hessian Eigenvalues:
     0.002000    0.002136    0.005996    0.007107    0.011339    0.015634
     0.047125    0.050076    0.070283    0.074411    0.075270    0.089124
     0.094661    0.160000    0.160000    0.160000    0.160000    0.160000
     0.160000    0.193935    0.200091    0.239327    0.250000    0.250000
     0.250000    0.250000    0.283055    0.294230    0.299788    0.306126
     0.307884    0.321827    0.358385    0.370833    0.380882    0.434349
     0.651435    0.776970    0.822693

 Minimum Search - Taking Simple RFO Step
 Searching for Lamda that Minimizes Along All modes
 Value Taken    Lamda =  -0.08621405
 Calculated Step too Large.  Step scaled by  0.542982
 Step Taken.  Stepsize is  0.300000

                             Maximum     Tolerance    Cnvgd?
         Gradient           0.110959      0.000300      NO
         Displacement       0.125005      0.001200      NO
         Energy change     *********      0.000001      NO


 New Cartesian Coordinates Obtained by Inverse Iteration

 Displacement from previous Coordinates is:  0.444115
 ----------------------------------------------------------------
             Standard Nuclear Orientation (Angstroms)
    I     Atom           X                Y                Z
 ----------------------------------------------------------------
    1      C       1.2812564064     0.3258997384     0.1746977788
    2      O       1.3617310535     1.5087082770    -0.2309548332
    3      O       2.2032591118    -0.2044307640     0.8789479986
    4      C       0.0142848644    -0.5604310772    -0.2285050755
    5      C      -0.0923497215    -0.7398771034    -1.7523775900
    6      O       0.1256768871    -1.8270416157     0.3274617220
    7      C      -1.2478181669     0.1278704389     0.3033925851
    8      O      -2.0712528421    -0.4398772144     1.0309340229
    9      C      -1.4868261258     1.5390557470    -0.0772768711
   10      H      -0.9585308258     1.7503206485    -0.9925522068
   11      H      -0.8692914886     2.0984229736     0.6176401815
   12      H      -2.5736410597     1.7640901963    -0.1856887627
   13      H      -1.0749183071    -1.1215699207    -2.1066364482
   14      H       0.5663656776    -1.6433804772    -1.8630854515
   15      H       0.2429139714     0.1397822849    -2.3272705828
 ----------------------------------------------------------------
 Molecular Point Group                 C1    NOp =  1
 Largest Abelian Subgroup              C1    NOp =  1
 Nuclear Repulsion Energy =   455.0188597600 hartrees
 There are       35 alpha and       35 beta electrons
 Requested basis set is 6-31+G(d)
 There are 57 shells and 183 basis functions
 A cutoff of  1.0D-11 yielded   1557 shell pairs
 There are     16698 function pairs
 Smallest overlap matrix eigenvalue = 2.92E-05
 Placing solute cavity origin at the center of mass
 Center of Onsager solute cavity (Angst): (   0.021698,  -0.031348,   0.047836)
 Solvent multipole matrices computed through 15th order

 Scale SEOQF with 1.000000e-01/1.000000e-01/1.000000e-01

 Standard Electronic Orientation quadrupole field applied
 Guess MOs from SCF MO coefficient file
 Reading MOs from coefficient file
 Reading MOs from coefficient file
 A restricted Hartree-Fock SCF calculation will be
 performed using Pulay DIIS extrapolation
 Kirkwood-Onsager solvation model will be applied
 SCF converges when DIIS error is below 1.0E-08
 Kirkwood-Onsager SCRF: 
 Maximum multipole order     = 15
 Solvent dielectric constant = 78.3900
 Cavity radius               = 56.6917 bohr
 Born term (E_born)          = -0.03482849 a.u. = -21.8552 kcal/mol
Geometry optimization detected.  Setting ReadMinima to 0
Setting SaveMinima to 0
 ---------------------------------------
  Cycle       Energy         DIIS Error
 ---------------------------------------
    1    -492.1657349730      6.40E-03
    2    -492.1627669093      1.21E-03
    3    -492.1702726857      6.18E-04
    4    -492.1720174579      1.81E-04
    5    -492.1722586583      7.34E-05
    6    -492.1723027194      2.19E-05
    7    -492.1723094776      8.70E-06
    8    -492.1723102084      3.21E-06
    9    -492.1723103133      9.69E-07
   10    -492.1723103253      3.74E-07
   11    -492.1723103268      1.37E-07
   12    -492.1723103266      6.42E-08
   13    -492.1723103263      2.95E-08
   14    -492.1723103262      1.05E-08
   15    -492.1723103266      4.32E-09 Convergence criterion met
 ---------------------------------------
 SCF time:  CPU 105.64 s  wall 105.09 s
 SCF   energy in the final basis set = -492.1723103266
 Total energy in the final basis set = -492.1723103266
 
 --------------------------------------------------------------
 
                    Orbital Energies (a.u.)
 --------------------------------------------------------------
 
 Alpha MOs
 -- Occupied --
-20.256 -20.172 -20.156 -20.089 -11.027 -10.996 -10.953 -10.947
-10.933  -1.072  -1.032  -0.914  -0.877  -0.745  -0.670  -0.554
 -0.441  -0.379  -0.341  -0.321  -0.313  -0.300  -0.270  -0.257
 -0.243  -0.222  -0.200  -0.185  -0.146  -0.102  -0.082  -0.049
 -0.048   0.005   0.017
 -- Virtual --
  0.275   0.290   0.317   0.335   0.346   0.352   0.361   0.369
  0.378   0.388   0.400   0.403   0.414   0.426   0.444   0.458
  0.468   0.489   0.499   0.514   0.559   0.589   0.613   0.614
  0.637   0.646   0.647   0.658   0.665   0.677   0.689   0.693
  0.704   0.710   0.715   0.733   0.739   0.766   0.778   0.787
  0.795   0.807   0.808   0.826   0.837   0.859   0.881   0.911
  0.937   1.015   1.080   1.122   1.167   1.180   1.198   1.225
  1.264   1.287   1.301   1.353   1.373   1.392   1.410   1.426
  1.445   1.452   1.475   1.515   1.533   1.569   1.605   1.610
  1.692   1.705   1.726   1.775   1.814   1.863   1.890   1.898
  1.929   1.956   1.972   1.983   1.993   2.020   2.034   2.055
  2.082   2.113   2.120   2.133   2.144   2.212   2.249   2.272
  2.324   2.352   2.376   2.400   2.422   2.441   2.490   2.514
  2.523   2.535   2.552   2.591   2.615   2.634   2.643   2.686
  2.710   2.730   2.774   2.788   2.837   2.855   2.895   2.935
  2.956   2.997   3.019   3.050   3.092   3.135   3.195   3.272
  3.317   3.354   3.405   3.460   3.577   3.676   3.730   3.775
  3.850   3.885   3.983   4.895   4.987   5.027   5.062   5.157
  5.235   5.306   5.427   5.598
 --------------------------------------------------------------
 
          Ground-State Mulliken Net Atomic Charges

     Atom                 Charge (a.u.)
  ----------------------------------------
      1 C                     0.524061
      2 O                    -0.768706
      3 O                    -0.759892
      4 C                     0.370457
      5 C                    -0.815585
      6 O                    -0.822680
      7 C                     0.388342
      8 O                    -0.581178
      9 C                    -0.685437
     10 H                     0.231912
     11 H                     0.244967
     12 H                     0.148861
     13 H                     0.142669
     14 H                     0.230324
     15 H                     0.151886
  ----------------------------------------
  Sum of atomic charges =    -2.000000

 -----------------------------------------------------------------
                    Cartesian Multipole Moments
 -----------------------------------------------------------------
    Charge (ESU x 10^10)
                -9.6064
    Dipole Moment (Debye)
         X      -5.5757      Y       4.5720      Z      -4.1476
       Tot       8.3183
    Quadrupole Moments (Debye-Ang)
        XX     -91.7108     XY      -6.7767     YY     -84.7865
        XZ      -0.1086     YZ       6.1170     ZZ     -67.4505
    Octopole Moments (Debye-Ang^2)
       XXX     -12.5974    XXY      -6.3488    XYY      -7.7671
       YYY      10.1153    XXZ     -22.1150    XYZ       1.6444
       YYZ       3.8736    XZZ       2.9124    YZZ       4.0871
       ZZZ      21.5378
    Hexadecapole Moments (Debye-Ang^3)
      XXXX    -890.4933   XXXY      -7.6696   XXYY    -237.1108
      XYYY      -5.1565   YYYY    -591.5971   XXXZ      -1.8771
      XXYZ       8.5345   XYYZ       2.9185   YYYZ       8.6915
      XXZZ    -207.0947   XYZZ       0.7415   YYZZ    -143.4733
      XZZZ      -2.5495   YZZZ      -8.7570   ZZZZ    -376.5942
 -----------------------------------------------------------------
 Calculating analytic gradient of the SCF energy
 Gradient of SCF Energy
            1           2           3           4           5           6
    1  -0.0600286   0.0151672   0.0445436  -0.0134850  -0.0149731   0.0121285
    2   0.0127771  -0.0011448  -0.0178310   0.0626801   0.0192276  -0.0301023
    3  -0.0259506   0.0084017   0.0296074  -0.0530714   0.0143838   0.0206219
            7           8           9          10          11          12
    1   0.0368552  -0.0288687   0.0016396   0.0055223   0.0165391  -0.0195401
    2   0.0409465  -0.0285153  -0.0125223  -0.0017179  -0.0113611  -0.0026873
    3  -0.0312667   0.0308757   0.0184651   0.0072466  -0.0065849  -0.0133921
           13          14          15
    1  -0.0062646   0.0064803   0.0042842
    2  -0.0134373  -0.0273142   0.0110021
    3  -0.0087714   0.0084599   0.0009750
 Max gradient component =       6.268E-02
 RMS gradient           =       2.433E-02
 Gradient time:  CPU 58.59 s  wall 58.58 s
 Geometry Optimization Parameters
   NAtoms,    NIC,     NZ,  NCons,   NDum,   NFix, NCnnct, MaxDiis
       15      95       0       0       0       0       0       0

 Cartesian Hessian Update
 Hessian Updated using BFGS Update


** GEOMETRY OPTIMIZATION IN DELOCALIZED INTERNAL COORDINATES **
   Searching for a Minimum

   Optimization Cycle:   2

                       Coordinates (Angstroms)
     ATOM                X               Y               Z
      1  C         1.2812564064    0.3258997384    0.1746977788
      2  O         1.3617310535    1.5087082770   -0.2309548332
      3  O         2.2032591118   -0.2044307640    0.8789479986
      4  C         0.0142848644   -0.5604310772   -0.2285050755
      5  C        -0.0923497215   -0.7398771034   -1.7523775900
      6  O         0.1256768871   -1.8270416157    0.3274617220
      7  C        -1.2478181669    0.1278704389    0.3033925851
      8  O        -2.0712528421   -0.4398772144    1.0309340229
      9  C        -1.4868261258    1.5390557470   -0.0772768711
     10  H        -0.9585308258    1.7503206485   -0.9925522068
     11  H        -0.8692914886    2.0984229736    0.6176401815
     12  H        -2.5736410597    1.7640901963   -0.1856887627
     13  H        -1.0749183071   -1.1215699207   -2.1066364482
     14  H         0.5663656776   -1.6433804772   -1.8630854515
     15  H         0.2429139714    0.1397822849   -2.3272705828
   Point Group: c1    Number of degrees of freedom:    39


   Energy is   -492.172310327

 Hessian Updated using BFGS Update

 33 Hessian modes will be used to form the next step
  Hessian Eigenvalues:
     0.002001    0.002165    0.005991    0.007098    0.011325    0.015640
     0.047126    0.054153    0.069858    0.074055    0.074764    0.087200
     0.097182    0.155856    0.161577    0.189708    0.203616    0.238978
     0.240524    0.271402    0.287277    0.298106    0.301761    0.306609
     0.316241    0.321809    0.359804    0.370316    0.374850    0.420247
     0.603519    0.762359    0.823224

 Minimum Search - Taking Simple RFO Step
 Searching for Lamda that Minimizes Along All modes
 Value Taken    Lamda =  -0.04790658
 Calculated Step too Large.  Step scaled by  0.584880
 Step Taken.  Stepsize is  0.300000

                             Maximum     Tolerance    Cnvgd?
         Gradient           0.069811      0.000300      NO
         Displacement       0.098795      0.001200      NO
         Energy change     -0.038113      0.000001      NO


 New Cartesian Coordinates Obtained by Inverse Iteration

 Displacement from previous Coordinates is:  0.476499
 ----------------------------------------------------------------
             Standard Nuclear Orientation (Angstroms)
    I     Atom           X                Y                Z
 ----------------------------------------------------------------
    1      C       1.3204766319     0.2784108361     0.1828212593
    2      O       1.3800717472     1.4361099250    -0.2982091621
    3      O       2.2256653404    -0.2369830386     0.8530719940
    4      C       0.0378869056    -0.6058154834    -0.1805286968
    5      C      -0.0605346008    -0.7312384333    -1.7262217101
    6      O       0.0972357993    -1.8467601984     0.3514672722
    7      C      -1.2381640923     0.1205106029     0.3173473416
    8      O      -2.0649233920    -0.4153339903     1.0207771377
    9      C      -1.5086500371     1.5453862227    -0.0965520727
   10      H      -1.0085173864     1.7749005498    -1.0253307808
   11      H      -0.9639243242     2.1716572338     0.6000044901
   12      H      -2.5851073522     1.7272296289    -0.1745791425
   13      H      -1.0583636248    -1.0542695242    -2.0551916162
   14      H       0.5769429476    -1.5983388848    -1.9224582870
   15      H       0.2707648726     0.1520766861    -2.2776915600
 ----------------------------------------------------------------
 Molecular Point Group                 C1    NOp =  1
 Largest Abelian Subgroup              C1    NOp =  1
 Nuclear Repulsion Energy =   456.1509260649 hartrees
 There are       35 alpha and       35 beta electrons
 Requested basis set is 6-31+G(d)
 There are 57 shells and 183 basis functions
 A cutoff of  1.0D-11 yielded   1557 shell pairs
 There are     16663 function pairs
 Smallest overlap matrix eigenvalue = 2.76E-05
 Placing solute cavity origin at the center of mass
 Center of Onsager solute cavity (Angst): (   0.030817,  -0.050120,   0.045201)
 Solvent multipole matrices computed through 15th order

 Scale SEOQF with 1.000000e-01/1.000000e-01/1.000000e-01

 Standard Electronic Orientation quadrupole field applied
 Guess MOs from SCF MO coefficient file
 Reading MOs from coefficient file
 Reading MOs from coefficient file
 A restricted Hartree-Fock SCF calculation will be
 performed using Pulay DIIS extrapolation
 Kirkwood-Onsager solvation model will be applied
 SCF converges when DIIS error is below 1.0E-08
 Kirkwood-Onsager SCRF: 
 Maximum multipole order     = 15
 Solvent dielectric constant = 78.3900
 Cavity radius               = 56.6917 bohr
 Born term (E_born)          = -0.03482849 a.u. = -21.8552 kcal/mol
Geometry optimization detected.  Setting ReadMinima to 0
Setting SaveMinima to 0
 ---------------------------------------
  Cycle       Energy         DIIS Error
 ---------------------------------------
    1    -492.2639969190      2.94E-03
    2    -492.1906701449      5.61E-04
    3    -492.1920230150      3.55E-04
    4    -492.1924612728      8.08E-05
    5    -492.1925128557      3.33E-05
    6    -492.1925232881      1.28E-05
    7    -492.1925252605      5.84E-06
    8    -492.1925257966      2.69E-06
    9    -492.1925258948      8.72E-07
   10    -492.1925259078      3.37E-07
   11    -492.1925259098      1.70E-07
   12    -492.1925259102      7.53E-08
   13    -492.1925259100      3.39E-08
   14    -492.1925259099      1.22E-08
   15    -492.1925259101      4.80E-09 Convergence criterion met
 ---------------------------------------
 SCF time:  CPU 105.21 s  wall 104.59 s
 SCF   energy in the final basis set = -492.1925259101
 Total energy in the final basis set = -492.1925259101
 
 --------------------------------------------------------------
 
                    Orbital Energies (a.u.)
 --------------------------------------------------------------
 
 Alpha MOs
 -- Occupied --
-20.256 -20.165 -20.159 -20.090 -11.021 -10.987 -10.949 -10.943
-10.920  -1.088  -1.037  -0.926  -0.891  -0.732  -0.668  -0.548
 -0.438  -0.378  -0.333  -0.323  -0.312  -0.298  -0.270  -0.259
 -0.243  -0.230  -0.202  -0.194  -0.157  -0.102  -0.084  -0.053
 -0.051   0.005   0.020
 -- Virtual --
  0.276   0.292   0.318   0.334   0.348   0.354   0.362   0.370
  0.378   0.389   0.400   0.403   0.414   0.424   0.448   0.459
  0.468   0.484   0.502   0.515   0.566   0.593   0.615   0.622
  0.636   0.648   0.656   0.663   0.668   0.676   0.693   0.698
  0.703   0.713   0.717   0.736   0.738   0.762   0.780   0.790
  0.797   0.807   0.814   0.827   0.847   0.859   0.883   0.905
  0.941   1.039   1.083   1.147   1.171   1.183   1.204   1.233
  1.267   1.293   1.308   1.367   1.388   1.392   1.422   1.424
  1.447   1.457   1.479   1.525   1.540   1.583   1.611   1.621
  1.696   1.716   1.724   1.781   1.804   1.866   1.886   1.892
  1.934   1.954   1.972   1.986   1.997   2.024   2.034   2.055
  2.078   2.104   2.120   2.130   2.141   2.204   2.240   2.269
  2.317   2.348   2.377   2.397   2.418   2.431   2.511   2.514
  2.517   2.535   2.559   2.596   2.623   2.634   2.647   2.688
  2.714   2.740   2.781   2.815   2.857   2.879   2.905   2.958
  2.976   3.014   3.041   3.077   3.094   3.150   3.215   3.277
  3.331   3.378   3.437   3.472   3.619   3.702   3.760   3.805
  3.894   3.901   4.004   4.900   4.994   5.044   5.063   5.172
  5.236   5.339   5.446   5.602
 --------------------------------------------------------------
 
          Ground-State Mulliken Net Atomic Charges

     Atom                 Charge (a.u.)
  ----------------------------------------
      1 C                     0.540493
      2 O                    -0.784254
      3 O                    -0.742075
      4 C                     0.320910
      5 C                    -0.763595
      6 O                    -0.829460
      7 C                     0.405054
      8 O                    -0.563376
      9 C                    -0.700843
     10 H                     0.223662
     11 H                     0.225641
     12 H                     0.148977
     13 H                     0.138295
     14 H                     0.215560
     15 H                     0.165010
  ----------------------------------------
  Sum of atomic charges =    -2.000000

 -----------------------------------------------------------------
                    Cartesian Multipole Moments
 -----------------------------------------------------------------
    Charge (ESU x 10^10)
                -9.6064
    Dipole Moment (Debye)
         X      -5.3842      Y       4.3930      Z      -3.6632
       Tot       7.8554
    Quadrupole Moments (Debye-Ang)
        XX     -91.2763     XY      -6.7270     YY     -84.4359
        XZ       0.2433     YZ       6.5205     ZZ     -67.2464
    Octopole Moments (Debye-Ang^2)
       XXX     -12.2779    XXY      -7.6804    XYY      -6.8631
       YYY      10.3558    XXZ     -20.4512    XYZ       2.4876
       YYZ       4.3249    XZZ       3.3715    YZZ       3.8755
       ZZZ      21.9329
    Hexadecapole Moments (Debye-Ang^3)
      XXXX    -898.9082   XXXY       0.0367   XXYY    -237.7634
      XYYY       1.1366   YYYY    -585.3093   XXXZ       1.6110
      XXYZ      11.5652   XYYZ       3.6994   YYYZ      14.8309
      XXZZ    -206.5194   XYZZ       1.9664   YYZZ    -142.5570
      XZZZ       0.0275   YZZZ      -3.6886   ZZZZ    -369.5500
 -----------------------------------------------------------------
 Calculating analytic gradient of the SCF energy
 Gradient of SCF Energy
            1           2           3           4           5           6
    1  -0.0218381   0.0100826   0.0119852  -0.0076765  -0.0045474   0.0065422
    2   0.0035559  -0.0061911  -0.0034194   0.0367890   0.0063981  -0.0142291
    3   0.0016132   0.0033456   0.0028980  -0.0326104   0.0072431   0.0117587
            7           8           9          10          11          12
    1   0.0102429  -0.0042482  -0.0096459   0.0038014   0.0105367  -0.0058669
    2   0.0106353  -0.0074048  -0.0048992   0.0003569  -0.0055475  -0.0031938
    3  -0.0063364   0.0057238   0.0134364   0.0047568  -0.0056508  -0.0079872
           13          14          15
    1  -0.0009000  -0.0015787   0.0031106
    2  -0.0065298  -0.0101333   0.0038128
    3  -0.0032744   0.0041447   0.0009389
 Max gradient component =       3.679E-02
 RMS gradient           =       1.050E-02
 Gradient time:  CPU 59.07 s  wall 59.11 s
 Geometry Optimization Parameters
   NAtoms,    NIC,     NZ,  NCons,   NDum,   NFix, NCnnct, MaxDiis
       15      95       0       0       0       0       0       0

 Cartesian Hessian Update
 Hessian Updated using BFGS Update


** GEOMETRY OPTIMIZATION IN DELOCALIZED INTERNAL COORDINATES **
   Searching for a Minimum

   Optimization Cycle:   3

                       Coordinates (Angstroms)
     ATOM                X               Y               Z
      1  C         1.3204766319    0.2784108361    0.1828212593
      2  O         1.3800717472    1.4361099250   -0.2982091621
      3  O         2.2256653404   -0.2369830386    0.8530719940
      4  C         0.0378869056   -0.6058154834   -0.1805286968
      5  C        -0.0605346008   -0.7312384333   -1.7262217101
      6  O         0.0972357993   -1.8467601984    0.3514672722
      7  C        -1.2381640923    0.1205106029    0.3173473416
      8  O        -2.0649233920   -0.4153339903    1.0207771377
      9  C        -1.5086500371    1.5453862227   -0.0965520727
     10  H        -1.0085173864    1.7749005498   -1.0253307808
     11  H        -0.9639243242    2.1716572338    0.6000044901
     12  H        -2.5851073522    1.7272296289   -0.1745791425
     13  H        -1.0583636248   -1.0542695242   -2.0551916162
     14  H         0.5769429476   -1.5983388848   -1.9224582870
     15  H         0.2707648726    0.1520766861   -2.2776915600
   Point Group: c1    Number of degrees of freedom:    39


   Energy is   -492.192525910

 Hessian Updated using BFGS Update

 36 Hessian modes will be used to form the next step
  Hessian Eigenvalues:
     0.002010    0.002296    0.005994    0.007283    0.011483    0.015648
     0.047477    0.049947    0.070197    0.074482    0.074557    0.086610
     0.096495    0.159113    0.160180    0.164292    0.197219    0.204206
     0.238876    0.248602    0.250000    0.253702    0.280957    0.287264
     0.292262    0.301248    0.306084    0.314882    0.322161    0.359764
     0.367021    0.372399    0.421401    0.655512    0.787496    0.834747

 Minimum Search - Taking Simple RFO Step
 Searching for Lamda that Minimizes Along All modes
 Value Taken    Lamda =  -0.01979348
 Calculated Step too Large.  Step scaled by  0.491875
 Step Taken.  Stepsize is  0.300000

                             Maximum     Tolerance    Cnvgd?
         Gradient           0.021804      0.000300      NO
         Displacement       0.142011      0.001200      NO
         Energy change     -0.020216      0.000001      NO


 New Cartesian Coordinates Obtained by Inverse Iteration

 Displacement from previous Coordinates is:  0.373921
 ----------------------------------------------------------------
             Standard Nuclear Orientation (Angstroms)
    I     Atom           X                Y                Z
 ----------------------------------------------------------------
    1      C       1.3244845501     0.2603584812     0.1631413103
    2      O       1.2784216977     1.4449755334    -0.2604904711
    3      O       2.2096503663    -0.1941406062     0.8848285427
    4      C       0.0520815146    -0.6582991856    -0.1609366879
    5      C      -0.0660365399    -0.7330616772    -1.7193044487
    6      O       0.0981823821    -1.8862252982     0.3528914085
    7      C      -1.2201152788     0.1041869082     0.3201338177
    8      O      -2.0571238515    -0.3958686318     1.0293706293
    9      C      -1.4673665945     1.5380993981    -0.1229821431
   10      H      -0.9858167689     1.7522841101    -1.0661549637
   11      H      -0.9477641602     2.1852101210     0.5739396072
   12      H      -2.5394971705     1.7284357090    -0.1717923328
   13      H      -1.0749192691    -1.0335737695    -2.0266010030
   14      H       0.5794127684    -1.5670844435    -1.9841551533
   15      H       0.2372657888     0.1722454830    -2.2431616452
 ----------------------------------------------------------------
 Molecular Point Group                 C1    NOp =  1
 Largest Abelian Subgroup              C1    NOp =  1
 Nuclear Repulsion Energy =   457.5117343512 hartrees
 There are       35 alpha and       35 beta electrons
 Requested basis set is 6-31+G(d)
 There are 57 shells and 183 basis functions
 A cutoff of  1.0D-11 yielded   1557 shell pairs
 There are     16695 function pairs
 Smallest overlap matrix eigenvalue = 2.67E-05
 Placing solute cavity origin at the center of mass
 Center of Onsager solute cavity (Angst): (   0.024353,  -0.054578,   0.052942)
 Solvent multipole matrices computed through 15th order

 Scale SEOQF with 1.000000e-01/1.000000e-01/1.000000e-01

 Standard Electronic Orientation quadrupole field applied
 Guess MOs from SCF MO coefficient file
 Reading MOs from coefficient file
 Reading MOs from coefficient file
 A restricted Hartree-Fock SCF calculation will be
 performed using Pulay DIIS extrapolation
 Kirkwood-Onsager solvation model will be applied
 SCF converges when DIIS error is below 1.0E-08
 Kirkwood-Onsager SCRF: 
 Maximum multipole order     = 15
 Solvent dielectric constant = 78.3900
 Cavity radius               = 56.6917 bohr
 Born term (E_born)          = -0.03482849 a.u. = -21.8552 kcal/mol
Geometry optimization detected.  Setting ReadMinima to 0
Setting SaveMinima to 0
 ---------------------------------------
  Cycle       Energy         DIIS Error
 ---------------------------------------
    1    -492.2127523558      2.70E-03
    2    -492.1958385604      5.31E-04
    3    -492.1970612457      3.76E-04
    4    -492.1975445382      7.43E-05
    5    -492.1976007703      2.53E-05
    6    -492.1976067004      1.22E-05
    7    -492.1976087831      5.69E-06
    8    -492.1976093819      2.13E-06
    9    -492.1976094498      6.21E-07
   10    -492.1976094563      2.48E-07
   11    -492.1976094576      1.26E-07
   12    -492.1976094578      6.00E-08
   13    -492.1976094576      2.06E-08
   14    -492.1976094579      8.32E-09 Convergence criterion met
 ---------------------------------------
 SCF time:  CPU 99.14 s  wall 98.61 s
 SCF   energy in the final basis set = -492.1976094579
 Total energy in the final basis set = -492.1976094579
 
 --------------------------------------------------------------
 
                    Orbital Energies (a.u.)
 --------------------------------------------------------------
 
 Alpha MOs
 -- Occupied --
-20.255 -20.163 -20.163 -20.095 -11.019 -10.987 -10.944 -10.943
-10.918  -1.090  -1.040  -0.930  -0.902  -0.724  -0.667  -0.545
 -0.436  -0.377  -0.326  -0.322  -0.312  -0.298  -0.267  -0.260
 -0.241  -0.233  -0.203  -0.196  -0.164  -0.103  -0.087  -0.058
 -0.054   0.004   0.020
 -- Virtual --
  0.278   0.293   0.319   0.335   0.350   0.355   0.364   0.371
  0.376   0.390   0.401   0.403   0.415   0.422   0.448   0.461
  0.467   0.479   0.505   0.513   0.570   0.591   0.620   0.633
  0.637   0.649   0.661   0.662   0.669   0.676   0.694   0.700
  0.703   0.714   0.722   0.734   0.740   0.761   0.778   0.789
  0.799   0.805   0.815   0.826   0.850   0.861   0.877   0.899
  0.940   1.044   1.081   1.156   1.175   1.189   1.212   1.241
  1.268   1.297   1.314   1.373   1.385   1.402   1.423   1.429
  1.444   1.464   1.480   1.533   1.544   1.588   1.613   1.622
  1.690   1.723   1.729   1.784   1.795   1.862   1.884   1.894
  1.936   1.956   1.970   1.976   1.995   2.020   2.038   2.059
  2.079   2.104   2.114   2.138   2.144   2.210   2.237   2.263
  2.311   2.339   2.376   2.395   2.422   2.429   2.506   2.513
  2.534   2.551   2.564   2.606   2.618   2.638   2.648   2.682
  2.711   2.733   2.781   2.823   2.867   2.903   2.915   2.972
  2.982   3.020   3.043   3.091   3.102   3.146   3.209   3.297
  3.333   3.386   3.443   3.465   3.629   3.705   3.757   3.826
  3.902   3.918   4.001   4.906   5.000   5.054   5.076   5.184
  5.237   5.337   5.487   5.590
 --------------------------------------------------------------
 
          Ground-State Mulliken Net Atomic Charges

     Atom                 Charge (a.u.)
  ----------------------------------------
      1 C                     0.553407
      2 O                    -0.782329
      3 O                    -0.737999
      4 C                     0.275321
      5 C                    -0.732925
      6 O                    -0.832786
      7 C                     0.408840
      8 O                    -0.565006
      9 C                    -0.685069
     10 H                     0.218175
     11 H                     0.225749
     12 H                     0.143762
     13 H                     0.139261
     14 H                     0.203204
     15 H                     0.168396
  ----------------------------------------
  Sum of atomic charges =    -2.000000

 -----------------------------------------------------------------
                    Cartesian Multipole Moments
 -----------------------------------------------------------------
    Charge (ESU x 10^10)
                -9.6064
    Dipole Moment (Debye)
         X      -4.9499      Y       4.1738      Z      -3.7113
       Tot       7.4630
    Quadrupole Moments (Debye-Ang)
        XX     -90.2237     XY      -6.3457     YY     -85.0498
        XZ      -0.3750     YZ       6.0242     ZZ     -67.4513
    Octopole Moments (Debye-Ang^2)
       XXX      -9.4896    XXY      -7.9074    XYY      -6.6388
       YYY      11.6690    XXZ     -20.6211    XYZ       1.8239
       YYZ       4.7055    XZZ       3.4625    YZZ       3.9953
       ZZZ      22.9303
    Hexadecapole Moments (Debye-Ang^3)
      XXXX    -872.8370   XXXY       3.3472   XXYY    -234.0233
      XYYY       2.3401   YYYY    -595.7648   XXXZ      -4.3620
      XXYZ      10.3723   XYYZ       1.5318   YYYZ      14.4949
      XXZZ    -203.2380   XYZZ       1.6531   YYZZ    -144.4436
      XZZZ      -3.5907   YZZZ      -4.8659   ZZZZ    -372.5780
 -----------------------------------------------------------------
 Calculating analytic gradient of the SCF energy
 Gradient of SCF Energy
            1           2           3           4           5           6
    1   0.0073186  -0.0029668  -0.0045625  -0.0081042   0.0002294   0.0033102
    2  -0.0104181   0.0025385   0.0040138   0.0192725   0.0045647  -0.0064512
    3  -0.0180973   0.0090578   0.0053573  -0.0120518   0.0047850   0.0070440
            7           8           9          10          11          12
    1   0.0015947   0.0004591  -0.0060018   0.0039557   0.0066045  -0.0011001
    2  -0.0002025  -0.0013360  -0.0021222  -0.0000201  -0.0024253  -0.0017014
    3  -0.0030740   0.0012495   0.0088532   0.0014338  -0.0028805  -0.0043577
           13          14          15
    1  -0.0006343  -0.0022674   0.0021651
    2  -0.0029734  -0.0041757   0.0014364
    3  -0.0008292   0.0026544   0.0008554
 Max gradient component =       1.927E-02
 RMS gradient           =       6.075E-03
 Gradient time:  CPU 58.76 s  wall 58.75 s
 Geometry Optimization Parameters
   NAtoms,    NIC,     NZ,  NCons,   NDum,   NFix, NCnnct, MaxDiis
       15      95       0       0       0       0       0       0

 Cartesian Hessian Update
 Hessian Updated using BFGS Update


** GEOMETRY OPTIMIZATION IN DELOCALIZED INTERNAL COORDINATES **
   Searching for a Minimum

   Optimization Cycle:   4

                       Coordinates (Angstroms)
     ATOM                X               Y               Z
      1  C         1.3244845501    0.2603584812    0.1631413103
      2  O         1.2784216977    1.4449755334   -0.2604904711
      3  O         2.2096503663   -0.1941406062    0.8848285427
      4  C         0.0520815146   -0.6582991856   -0.1609366879
      5  C        -0.0660365399   -0.7330616772   -1.7193044487
      6  O         0.0981823821   -1.8862252982    0.3528914085
      7  C        -1.2201152788    0.1041869082    0.3201338177
      8  O        -2.0571238515   -0.3958686318    1.0293706293
      9  C        -1.4673665945    1.5380993981   -0.1229821431
     10  H        -0.9858167689    1.7522841101   -1.0661549637
     11  H        -0.9477641602    2.1852101210    0.5739396072
     12  H        -2.5394971705    1.7284357090   -0.1717923328
     13  H        -1.0749192691   -1.0335737695   -2.0266010030
     14  H         0.5794127684   -1.5670844435   -1.9841551533
     15  H         0.2372657888    0.1722454830   -2.2431616452
   Point Group: c1    Number of degrees of freedom:    39


   Energy is   -492.197609458

 Hessian Updated using BFGS Update

 37 Hessian modes will be used to form the next step
  Hessian Eigenvalues:
     0.002016    0.004589    0.006671    0.007186    0.011576    0.015671
     0.047153    0.066785    0.072308    0.074369    0.081106    0.083471
     0.095756    0.153783    0.160144    0.160943    0.161526    0.196425
     0.204463    0.234012    0.243951    0.250000    0.252068    0.278166
     0.288801    0.296335    0.304420    0.306984    0.320785    0.335590
     0.360948    0.361905    0.376233    0.420137    0.664736    0.790915
     0.834740

 Minimum Search - Taking Simple RFO Step
 Searching for Lamda that Minimizes Along All modes
 Value Taken    Lamda =  -0.01940286
 Calculated Step too Large.  Step scaled by  0.355011
 Step Taken.  Stepsize is  0.300000

                             Maximum     Tolerance    Cnvgd?
         Gradient           0.013081      0.000300      NO
         Displacement       0.136868      0.001200      NO
         Energy change     -0.005084      0.000001      NO


 New Cartesian Coordinates Obtained by Inverse Iteration

 Displacement from previous Coordinates is:  0.358829
 ----------------------------------------------------------------
             Standard Nuclear Orientation (Angstroms)
    I     Atom           X                Y                Z
 ----------------------------------------------------------------
    1      C       1.3116388973     0.2527940639     0.1985613669
    2      O       1.2572711951     1.3973161588    -0.3327819949
    3      O       2.2476799551    -0.1977248350     0.8479859318
    4      C       0.0569822812    -0.7007568769    -0.1182678158
    5      C      -0.0548087308    -0.7178211814    -1.6926517408
    6      O       0.0856412674    -1.9223705404     0.3615226499
    7      C      -1.2230736175     0.0908304579     0.3326092165
    8      O      -2.0837681625    -0.3806457993     1.0290666585
    9      C      -1.4539110115     1.5316619741    -0.1449386288
   10      H      -0.9825160652     1.7377827094    -1.0962848795
   11      H      -0.9797743696     2.2066792772     0.5596660073
   12      H      -2.5234930190     1.7204948902    -0.1799208392
   13      H      -1.0686000605    -0.9955106411    -1.9963410254
   14      H       0.6025109789    -1.5149073488    -2.0195020192
   15      H       0.2290798962     0.2097198235    -2.1799964206
 ----------------------------------------------------------------
 Molecular Point Group                 C1    NOp =  1
 Largest Abelian Subgroup              C1    NOp =  1
 Nuclear Repulsion Energy =   457.4298964371 hartrees
 There are       35 alpha and       35 beta electrons
 Requested basis set is 6-31+G(d)
 There are 57 shells and 183 basis functions
 A cutoff of  1.0D-11 yielded   1557 shell pairs
 There are     16692 function pairs
 Smallest overlap matrix eigenvalue = 2.59E-05
 Placing solute cavity origin at the center of mass
 Center of Onsager solute cavity (Angst): (   0.022947,  -0.067510,   0.049376)
 Solvent multipole matrices computed through 15th order

 Scale SEOQF with 1.000000e-01/1.000000e-01/1.000000e-01

 Standard Electronic Orientation quadrupole field applied
 Guess MOs from SCF MO coefficient file
 Reading MOs from coefficient file
 Reading MOs from coefficient file
 A restricted Hartree-Fock SCF calculation will be
 performed using Pulay DIIS extrapolation
 Kirkwood-Onsager solvation model will be applied
 SCF converges when DIIS error is below 1.0E-08
 Kirkwood-Onsager SCRF: 
 Maximum multipole order     = 15
 Solvent dielectric constant = 78.3900
 Cavity radius               = 56.6917 bohr
 Born term (E_born)          = -0.03482849 a.u. = -21.8552 kcal/mol
Geometry optimization detected.  Setting ReadMinima to 0
Setting SaveMinima to 0
 ---------------------------------------
  Cycle       Energy         DIIS Error
 ---------------------------------------
    1    -492.2062031574      2.64E-03
    2    -492.1983847427      4.91E-04
    3    -492.1995615308      3.33E-04
    4    -492.1999568517      7.72E-05
    5    -492.2000179904      2.45E-05
    6    -492.2000242223      1.25E-05
    7    -492.2000264948      5.75E-06
    8    -492.2000270616      1.85E-06
    9    -492.2000271052      5.10E-07
   10    -492.2000271083      1.63E-07
   11    -492.2000271088      7.46E-08
   12    -492.2000271087      3.00E-08
   13    -492.2000271082      1.07E-08
   14    -492.2000271081      3.96E-09 Convergence criterion met
 ---------------------------------------
 SCF time:  CPU 98.00 s  wall 97.48 s
 SCF   energy in the final basis set = -492.2000271081
 Total energy in the final basis set = -492.2000271081
 
 --------------------------------------------------------------
 
                    Orbital Energies (a.u.)
 --------------------------------------------------------------
 
 Alpha MOs
 -- Occupied --
-20.256 -20.167 -20.162 -20.101 -11.018 -10.988 -10.946 -10.943
-10.913  -1.092  -1.041  -0.933  -0.913  -0.720  -0.665  -0.544
 -0.435  -0.376  -0.323  -0.320  -0.310  -0.299  -0.265  -0.260
 -0.240  -0.234  -0.203  -0.198  -0.171  -0.106  -0.091  -0.061
 -0.057   0.002   0.019
 -- Virtual --
  0.279   0.295   0.320   0.334   0.352   0.357   0.365   0.372
  0.374   0.392   0.401   0.404   0.415   0.422   0.448   0.458
  0.468   0.474   0.510   0.515   0.569   0.592   0.615   0.634
  0.638   0.648   0.662   0.668   0.670   0.676   0.693   0.698
  0.708   0.714   0.720   0.735   0.738   0.755   0.777   0.785
  0.796   0.804   0.819   0.825   0.844   0.869   0.876   0.889
  0.934   1.053   1.075   1.157   1.178   1.189   1.213   1.247
  1.266   1.302   1.319   1.376   1.380   1.407   1.419   1.427
  1.450   1.464   1.488   1.536   1.547   1.591   1.623   1.627
  1.694   1.725   1.736   1.781   1.788   1.866   1.883   1.889
  1.935   1.956   1.971   1.988   2.004   2.015   2.034   2.057
  2.068   2.096   2.114   2.128   2.146   2.207   2.231   2.265
  2.302   2.333   2.376   2.382   2.416   2.429   2.503   2.503
  2.533   2.557   2.561   2.604   2.618   2.633   2.649   2.673
  2.711   2.751   2.779   2.826   2.847   2.899   2.935   2.978
  2.979   3.026   3.060   3.086   3.107   3.140   3.219   3.286
  3.332   3.389   3.447   3.464   3.631   3.711   3.758   3.838
  3.916   3.925   4.004   4.911   5.005   5.056   5.078   5.187
  5.238   5.375   5.468   5.602
 --------------------------------------------------------------
 
          Ground-State Mulliken Net Atomic Charges

     Atom                 Charge (a.u.)
  ----------------------------------------
      1 C                     0.571547
      2 O                    -0.775481
      3 O                    -0.742591
      4 C                     0.214918
      5 C                    -0.694586
      6 O                    -0.832940
      7 C                     0.429469
      8 O                    -0.570049
      9 C                    -0.686752
     10 H                     0.217955
     11 H                     0.214699
     12 H                     0.143373
     13 H                     0.137771
     14 H                     0.192224
     15 H                     0.180442
  ----------------------------------------
  Sum of atomic charges =    -2.000000

 -----------------------------------------------------------------
                    Cartesian Multipole Moments
 -----------------------------------------------------------------
    Charge (ESU x 10^10)
                -9.6064
    Dipole Moment (Debye)
         X      -4.8288      Y       4.1655      Z      -3.3526
       Tot       7.2047
    Quadrupole Moments (Debye-Ang)
        XX     -91.0894     XY      -6.1010     YY     -84.8502
        XZ       0.1809     YZ       6.3311     ZZ     -67.3542
    Octopole Moments (Debye-Ang^2)
       XXX      -9.6367    XXY      -8.2755    XYY      -5.8165
       YYY      12.5348    XXZ     -20.2988    XYZ       2.2471
       YYZ       4.8138    XZZ       3.8365    YZZ       3.8875
       ZZZ      22.3273
    Hexadecapole Moments (Debye-Ang^3)
      XXXX    -888.5539   XXXY       6.4081   XXYY    -233.6222
      XYYY       5.4775   YYYY    -594.9019   XXXZ      -0.6141
      XXYZ      12.6493   XYYZ       2.6099   YYYZ      20.0655
      XXZZ    -203.7658   XYZZ       2.0268   YYZZ    -143.8358
      XZZZ      -0.6900   YZZZ      -0.1500   ZZZZ    -366.7592
 -----------------------------------------------------------------
 Calculating analytic gradient of the SCF energy
 Gradient of SCF Energy
            1           2           3           4           5           6
    1   0.0021508  -0.0047709  -0.0044056   0.0001615   0.0014054   0.0009800
    2  -0.0021300   0.0036089   0.0003582  -0.0038921   0.0014224   0.0019245
    3   0.0150873  -0.0075297  -0.0069622  -0.0036678   0.0028650  -0.0004753
            7           8           9          10          11          12
    1  -0.0021145   0.0026599  -0.0032701   0.0033768   0.0019873   0.0026550
    2  -0.0048871   0.0020353  -0.0000479   0.0001475   0.0001030  -0.0002216
    3   0.0023021  -0.0026609   0.0036009  -0.0018316  -0.0006656  -0.0011430
           13          14          15
    1  -0.0000409  -0.0021965   0.0014220
    2   0.0008030   0.0005118   0.0002640
    3   0.0004236   0.0007473  -0.0000902
 Max gradient component =       1.509E-02
 RMS gradient           =       3.511E-03
 Gradient time:  CPU 58.89 s  wall 58.89 s
 Geometry Optimization Parameters
   NAtoms,    NIC,     NZ,  NCons,   NDum,   NFix, NCnnct, MaxDiis
       15      95       0       0       0       0       0       0

 Cartesian Hessian Update
 Hessian Updated using BFGS Update


** GEOMETRY OPTIMIZATION IN DELOCALIZED INTERNAL COORDINATES **
   Searching for a Minimum

   Optimization Cycle:   5

                       Coordinates (Angstroms)
     ATOM                X               Y               Z
      1  C         1.3116388973    0.2527940639    0.1985613669
      2  O         1.2572711951    1.3973161588   -0.3327819949
      3  O         2.2476799551   -0.1977248350    0.8479859318
      4  C         0.0569822812   -0.7007568769   -0.1182678158
      5  C        -0.0548087308   -0.7178211814   -1.6926517408
      6  O         0.0856412674   -1.9223705404    0.3615226499
      7  C        -1.2230736175    0.0908304579    0.3326092165
      8  O        -2.0837681625   -0.3806457993    1.0290666585
      9  C        -1.4539110115    1.5316619741   -0.1449386288
     10  H        -0.9825160652    1.7377827094   -1.0962848795
     11  H        -0.9797743696    2.2066792772    0.5596660073
     12  H        -2.5234930190    1.7204948902   -0.1799208392
     13  H        -1.0686000605   -0.9955106411   -1.9963410254
     14  H         0.6025109789   -1.5149073488   -2.0195020192
     15  H         0.2290798962    0.2097198235   -2.1799964206
   Point Group: c1    Number of degrees of freedom:    39


   Energy is   -492.200027108

 Hessian Updated using BFGS Update

 38 Hessian modes will be used to form the next step
  Hessian Eigenvalues:
     0.002012    0.005988    0.007032    0.011106    0.015622    0.045880
     0.057898    0.071513    0.074025    0.076942    0.080936    0.093196
     0.099509    0.148227    0.160032    0.160311    0.160476    0.161477
     0.195687    0.204388    0.222915    0.242943    0.250344    0.251336
     0.275662    0.288368    0.296803    0.304453    0.305808    0.321090
     0.340431    0.360380    0.366761    0.388475    0.420501    0.665358
     0.797882    0.836163

 Minimum Search - Taking Simple RFO Step
 Searching for Lamda that Minimizes Along All modes
 Value Taken    Lamda =  -0.00525401
 Calculated Step too Large.  Step scaled by  0.712532
 Step Taken.  Stepsize is  0.300000

                             Maximum     Tolerance    Cnvgd?
         Gradient           0.018500      0.000300      NO
         Displacement       0.126491      0.001200      NO
         Energy change     -0.002418      0.000001      NO


 New Cartesian Coordinates Obtained by Inverse Iteration

 Displacement from previous Coordinates is:  0.635482
 ----------------------------------------------------------------
             Standard Nuclear Orientation (Angstroms)
    I     Atom           X                Y                Z
 ----------------------------------------------------------------
    1      C       1.3876379631     0.1972364104     0.2119931459
    2      O       1.4050359430     1.3480672429    -0.3046273363
    3      O       2.2695874256    -0.2906042195     0.9136735152
    4      C       0.0770174694    -0.6890275354    -0.1158012836
    5      C      -0.0426154274    -0.7049002569    -1.7009973573
    6      O       0.0583121636    -1.9145519938     0.3375136601
    7      C      -1.1986182733     0.1243956677     0.3539238461
    8      O      -2.0364681441    -0.3414981068     1.0816349912
    9      C      -1.5130152346     1.5412777598    -0.1708139335
   10      H      -1.1231026148     1.7406747849    -1.1577127216
   11      H      -1.0587221347     2.2726631401     0.4900030543
   12      H      -2.5909513091     1.6765585373    -0.1360670079
   13      H      -1.0582033019    -0.9811802481    -1.9926145193
   14      H       0.6218197685    -1.4859388806    -2.0511772914
   15      H       0.2231451413     0.2243698300    -2.1902042950
 ----------------------------------------------------------------
 Molecular Point Group                 C1    NOp =  1
 Largest Abelian Subgroup              C1    NOp =  1
 Nuclear Repulsion Energy =   454.1184905118 hartrees
 There are       35 alpha and       35 beta electrons
 Requested basis set is 6-31+G(d)
 There are 57 shells and 183 basis functions
 A cutoff of  1.0D-11 yielded   1553 shell pairs
 There are     16645 function pairs
 Smallest overlap matrix eigenvalue = 2.70E-05
 Placing solute cavity origin at the center of mass
 Center of Onsager solute cavity (Angst): (   0.051025,  -0.077441,   0.063737)
 Solvent multipole matrices computed through 15th order

 Scale SEOQF with 1.000000e-01/1.000000e-01/1.000000e-01

 Standard Electronic Orientation quadrupole field applied
 Guess MOs from SCF MO coefficient file
 Reading MOs from coefficient file
 Reading MOs from coefficient file
 A restricted Hartree-Fock SCF calculation will be
 performed using Pulay DIIS extrapolation
 Kirkwood-Onsager solvation model will be applied
 SCF converges when DIIS error is below 1.0E-08
 Kirkwood-Onsager SCRF: 
 Maximum multipole order     = 15
 Solvent dielectric constant = 78.3900
 Cavity radius               = 56.6917 bohr
 Born term (E_born)          = -0.03482849 a.u. = -21.8552 kcal/mol
Geometry optimization detected.  Setting ReadMinima to 0
Setting SaveMinima to 0
 ---------------------------------------
  Cycle       Energy         DIIS Error
 ---------------------------------------
    1    -492.1910206471      2.81E-03
    2    -492.1994692547      3.96E-04
    3    -492.2004203717      2.20E-04
    4    -492.2006083718      8.67E-05
    5    -492.2006567716      1.80E-05
    6    -492.2006610757      8.74E-06
    7    -492.2006623275      4.00E-06
    8    -492.2006625936      1.69E-06
    9    -492.2006626436      7.71E-07
   10    -492.2006626559      3.22E-07
   11    -492.2006626587      1.33E-07
   12    -492.2006626588      5.51E-08
   13    -492.2006626584      1.97E-08
   14    -492.2006626584      6.87E-09 Convergence criterion met
 ---------------------------------------
 SCF time:  CPU 98.15 s  wall 97.55 s
 SCF   energy in the final basis set = -492.2006626584
 Total energy in the final basis set = -492.2006626584
 
 --------------------------------------------------------------
 
                    Orbital Energies (a.u.)
 --------------------------------------------------------------
 
 Alpha MOs
 -- Occupied --
-20.258 -20.166 -20.164 -20.100 -11.022 -10.988 -10.951 -10.950
-10.913  -1.094  -1.039  -0.931  -0.916  -0.721  -0.663  -0.542
 -0.437  -0.376  -0.325  -0.321  -0.311  -0.300  -0.267  -0.261
 -0.239  -0.236  -0.205  -0.200  -0.173  -0.108  -0.091  -0.061
 -0.056   0.002   0.020
 -- Virtual --
  0.277   0.294   0.320   0.335   0.349   0.355   0.364   0.371
  0.375   0.391   0.400   0.405   0.416   0.421   0.447   0.457
  0.466   0.478   0.506   0.514   0.570   0.593   0.615   0.631
  0.633   0.643   0.661   0.667   0.670   0.675   0.686   0.697
  0.704   0.714   0.721   0.733   0.737   0.747   0.776   0.781
  0.797   0.806   0.814   0.822   0.845   0.867   0.873   0.889
  0.931   1.048   1.069   1.146   1.173   1.190   1.221   1.238
  1.265   1.287   1.314   1.371   1.377   1.408   1.417   1.428
  1.449   1.468   1.490   1.523   1.543   1.596   1.618   1.628
  1.689   1.718   1.734   1.770   1.797   1.863   1.885   1.886
  1.928   1.952   1.972   1.981   1.999   2.015   2.033   2.046
  2.063   2.085   2.102   2.128   2.146   2.190   2.215   2.253
  2.300   2.327   2.368   2.375   2.395   2.423   2.495   2.504
  2.514   2.548   2.551   2.579   2.604   2.631   2.648   2.661
  2.708   2.750   2.784   2.826   2.846   2.889   2.910   2.976
  2.984   3.016   3.052   3.065   3.104   3.141   3.219   3.280
  3.317   3.377   3.440   3.454   3.619   3.697   3.751   3.826
  3.909   3.919   3.998   4.895   4.993   5.053   5.061   5.163
  5.233   5.351   5.457   5.580
 --------------------------------------------------------------
 
          Ground-State Mulliken Net Atomic Charges

     Atom                 Charge (a.u.)
  ----------------------------------------
      1 C                     0.544235
      2 O                    -0.779045
      3 O                    -0.740908
      4 C                     0.267232
      5 C                    -0.707937
      6 O                    -0.823256
      7 C                     0.430929
      8 O                    -0.556202
      9 C                    -0.704152
     10 H                     0.202452
     11 H                     0.210267
     12 H                     0.151109
     13 H                     0.139385
     14 H                     0.189278
     15 H                     0.176611
  ----------------------------------------
  Sum of atomic charges =    -2.000000

 -----------------------------------------------------------------
                    Cartesian Multipole Moments
 -----------------------------------------------------------------
    Charge (ESU x 10^10)
                -9.6064
    Dipole Moment (Debye)
         X      -5.1009      Y       4.2472      Z      -3.3846
       Tot       7.4507
    Quadrupole Moments (Debye-Ang)
        XX     -91.3069     XY      -6.3681     YY     -84.1001
        XZ      -0.0207     YZ       6.1800     ZZ     -68.0088
    Octopole Moments (Debye-Ang^2)
       XXX     -12.0794    XXY      -9.0471    XYY      -5.7712
       YYY      12.2281    XXZ     -20.4404    XYZ       3.0318
       YYZ       5.6653    XZZ       3.8475    YZZ       3.5518
       ZZZ      22.8013
    Hexadecapole Moments (Debye-Ang^3)
      XXXX    -914.7975   XXXY      14.9736   XXYY    -238.3050
      XYYY      10.7553   YYYY    -581.7271   XXXZ      -5.8229
      XXYZ      14.6456   XYYZ       0.8428   YYYZ      19.5585
      XXZZ    -212.5721   XYZZ       4.5935   YYZZ    -144.0456
      XZZZ      -4.1773   YZZZ       0.9309   ZZZZ    -380.5997
 -----------------------------------------------------------------
 Calculating analytic gradient of the SCF energy
 Gradient of SCF Energy
            1           2           3           4           5           6
    1   0.0081170   0.0009214  -0.0020329  -0.0035215   0.0017363   0.0007970
    2  -0.0056323   0.0038203   0.0010219  -0.0025966  -0.0039005   0.0060351
    3   0.0034827  -0.0026045  -0.0011865   0.0053073  -0.0016144  -0.0043069
            7           8           9          10          11          12
    1   0.0001953  -0.0006908  -0.0049042  -0.0000845  -0.0017618   0.0017402
    2  -0.0040278   0.0013050   0.0004967   0.0009738   0.0010338   0.0004435
    3   0.0058818  -0.0035070  -0.0023595   0.0002981  -0.0003601   0.0014398
           13          14          15
    1   0.0007466  -0.0014944   0.0002363
    2   0.0023086   0.0015155  -0.0027970
    3   0.0004432  -0.0012766   0.0003628
 Max gradient component =       8.117E-03
 RMS gradient           =       2.938E-03
 Gradient time:  CPU 58.09 s  wall 58.12 s
 Geometry Optimization Parameters
   NAtoms,    NIC,     NZ,  NCons,   NDum,   NFix, NCnnct, MaxDiis
       15      95       0       0       0       0       0       0

 Cartesian Hessian Update
 Hessian Updated using BFGS Update


** GEOMETRY OPTIMIZATION IN DELOCALIZED INTERNAL COORDINATES **
   Searching for a Minimum

   Optimization Cycle:   6

                       Coordinates (Angstroms)
     ATOM                X               Y               Z
      1  C         1.3876379631    0.1972364104    0.2119931459
      2  O         1.4050359430    1.3480672429   -0.3046273363
      3  O         2.2695874256   -0.2906042195    0.9136735152
      4  C         0.0770174694   -0.6890275354   -0.1158012836
      5  C        -0.0426154274   -0.7049002569   -1.7009973573
      6  O         0.0583121636   -1.9145519938    0.3375136601
      7  C        -1.1986182733    0.1243956677    0.3539238461
      8  O        -2.0364681441   -0.3414981068    1.0816349912
      9  C        -1.5130152346    1.5412777598   -0.1708139335
     10  H        -1.1231026148    1.7406747849   -1.1577127216
     11  H        -1.0587221347    2.2726631401    0.4900030543
     12  H        -2.5909513091    1.6765585373   -0.1360670079
     13  H        -1.0582033019   -0.9811802481   -1.9926145193
     14  H         0.6218197685   -1.4859388806   -2.0511772914
     15  H         0.2231451413    0.2243698300   -2.1902042950
   Point Group: c1    Number of degrees of freedom:    39


   Energy is   -492.200662658

 Hessian Updated using BFGS Update

 39 Hessian modes will be used to form the next step
  Hessian Eigenvalues:
     0.002119    0.005580    0.007541    0.012709    0.015669    0.048105
     0.070171    0.072809    0.074735    0.080774    0.086091    0.095132
     0.098095    0.158310    0.159881    0.160010    0.160199    0.161211
     0.162383    0.199064    0.204976    0.241040    0.244624    0.250415
     0.257324    0.278095    0.288522    0.299351    0.304320    0.312321
     0.322569    0.357656    0.362777    0.367846    0.406687    0.447749
     0.657736    0.787150    0.833957

 Minimum Search - Taking Simple RFO Step
 Searching for Lamda that Minimizes Along All modes
 Value Taken    Lamda =  -0.00216199
 Calculated Step too Large.  Step scaled by  0.989613
 Step Taken.  Stepsize is  0.300000

                             Maximum     Tolerance    Cnvgd?
         Gradient           0.013935      0.000300      NO
         Displacement       0.135799      0.001200      NO
         Energy change     -0.000636      0.000001      NO


 New Cartesian Coordinates Obtained by Inverse Iteration

 Displacement from previous Coordinates is:  0.392568
 ----------------------------------------------------------------
             Standard Nuclear Orientation (Angstroms)
    I     Atom           X                Y                Z
 ----------------------------------------------------------------
    1      C       1.3527609598     0.1996897339     0.2196153302
    2      O       1.3570200880     1.3660850830    -0.2503124067
    3      O       2.2474519476    -0.2955935258     0.9055680938
    4      C       0.0621211760    -0.6969651917    -0.1265718946
    5      C      -0.0519291637    -0.7009909201    -1.7079505771
    6      O       0.0464892068    -1.9306850914     0.3368191720
    7      C      -1.2027808863     0.1223469891     0.3413589337
    8      O      -2.0109978284    -0.3181219644     1.1197032307
    9      C      -1.4908421273     1.5382879496    -0.1806116461
   10      H      -1.1203807739     1.7145543944    -1.1781123806
   11      H      -0.9854895639     2.2514640728     0.4623837990
   12      H      -2.5668069513     1.7046236496    -0.1252893859
   13      H      -1.0373544815    -1.0645800093    -2.0141758609
   14      H       0.6797935185    -1.4282541511    -2.0487194778
   15      H       0.1418043141     0.2556811134    -2.1849784628
 ----------------------------------------------------------------
 Molecular Point Group                 C1    NOp =  1
 Largest Abelian Subgroup              C1    NOp =  1
 Nuclear Repulsion Energy =   455.2415498682 hartrees
 There are       35 alpha and       35 beta electrons
 Requested basis set is 6-31+G(d)
 There are 57 shells and 183 basis functions
 A cutoff of  1.0D-11 yielded   1554 shell pairs
 There are     16649 function pairs
 Smallest overlap matrix eigenvalue = 2.61E-05
 Placing solute cavity origin at the center of mass
 Center of Onsager solute cavity (Angst): (   0.041040,  -0.075663,   0.070627)
 Solvent multipole matrices computed through 15th order

 Scale SEOQF with 1.000000e-01/1.000000e-01/1.000000e-01

 Standard Electronic Orientation quadrupole field applied
 Guess MOs from SCF MO coefficient file
 Reading MOs from coefficient file
 Reading MOs from coefficient file
 A restricted Hartree-Fock SCF calculation will be
 performed using Pulay DIIS extrapolation
 Kirkwood-Onsager solvation model will be applied
 SCF converges when DIIS error is below 1.0E-08
 Kirkwood-Onsager SCRF: 
 Maximum multipole order     = 15
 Solvent dielectric constant = 78.3900
 Cavity radius               = 56.6917 bohr
 Born term (E_born)          = -0.03482849 a.u. = -21.8552 kcal/mol
Geometry optimization detected.  Setting ReadMinima to 0
Setting SaveMinima to 0
 ---------------------------------------
  Cycle       Energy         DIIS Error
 ---------------------------------------
    1    -492.1925458405      1.70E-03
    2    -492.2010957592      2.69E-04
    3    -492.2016865745      1.04E-04
    4    -492.2017700896      5.36E-05
    5    -492.2017896610      1.56E-05
    6    -492.2017927436      7.59E-06
    7    -492.2017936246      2.56E-06
    8    -492.2017937276      9.44E-07
    9    -492.2017937407      4.78E-07
   10    -492.2017937445      2.21E-07
   11    -492.2017937460      8.77E-08
   12    -492.2017937463      3.46E-08
   13    -492.2017937464      1.31E-08
   14    -492.2017937464      5.27E-09 Convergence criterion met
 ---------------------------------------
 SCF time:  CPU 96.62 s  wall 96.11 s
 SCF   energy in the final basis set = -492.2017937464
 Total energy in the final basis set = -492.2017937464
 
 --------------------------------------------------------------
 
                    Orbital Energies (a.u.)
 --------------------------------------------------------------
 
 Alpha MOs
 -- Occupied --
-20.257 -20.165 -20.164 -20.101 -11.021 -10.989 -10.949 -10.949
-10.916  -1.092  -1.040  -0.931  -0.910  -0.723  -0.665  -0.544
 -0.436  -0.376  -0.324  -0.322  -0.312  -0.301  -0.266  -0.261
 -0.239  -0.235  -0.203  -0.200  -0.170  -0.107  -0.090  -0.060
 -0.055   0.002   0.018
 -- Virtual --
  0.277   0.293   0.320   0.335   0.349   0.355   0.364   0.371
  0.375   0.392   0.400   0.405   0.416   0.421   0.448   0.457
  0.465   0.480   0.505   0.514   0.571   0.593   0.617   0.631
  0.636   0.645   0.660   0.666   0.672   0.675   0.686   0.697
  0.704   0.714   0.721   0.731   0.738   0.751   0.776   0.783
  0.798   0.805   0.814   0.822   0.847   0.867   0.872   0.890
  0.928   1.046   1.074   1.153   1.177   1.187   1.216   1.237
  1.265   1.292   1.312   1.368   1.374   1.408   1.418   1.426
  1.446   1.468   1.488   1.527   1.541   1.593   1.619   1.625
  1.689   1.721   1.731   1.765   1.805   1.860   1.885   1.891
  1.933   1.953   1.971   1.981   2.000   2.017   2.034   2.053
  2.065   2.090   2.108   2.130   2.147   2.190   2.228   2.248
  2.302   2.336   2.370   2.378   2.407   2.420   2.497   2.503
  2.516   2.556   2.559   2.586   2.609   2.633   2.648   2.670
  2.705   2.748   2.784   2.820   2.847   2.890   2.916   2.966
  2.974   3.014   3.049   3.072   3.098   3.137   3.220   3.285
  3.318   3.376   3.437   3.455   3.624   3.700   3.754   3.830
  3.909   3.920   3.992   4.899   4.997   5.054   5.080   5.168
  5.230   5.350   5.475   5.580
 --------------------------------------------------------------
 
          Ground-State Mulliken Net Atomic Charges

     Atom                 Charge (a.u.)
  ----------------------------------------
      1 C                     0.550605
      2 O                    -0.775429
      3 O                    -0.741969
      4 C                     0.240224
      5 C                    -0.698453
      6 O                    -0.826289
      7 C                     0.422518
      8 O                    -0.558483
      9 C                    -0.682675
     10 H                     0.196998
     11 H                     0.221858
     12 H                     0.147638
     13 H                     0.144049
     14 H                     0.189954
     15 H                     0.169455
  ----------------------------------------
  Sum of atomic charges =    -2.000000

 -----------------------------------------------------------------
                    Cartesian Multipole Moments
 -----------------------------------------------------------------
    Charge (ESU x 10^10)
                -9.6064
    Dipole Moment (Debye)
         X      -5.0451      Y       4.3360      Z      -3.5940
       Tot       7.5612
    Quadrupole Moments (Debye-Ang)
        XX     -90.6181     XY      -5.9193     YY     -84.5142
        XZ       0.0273     YZ       5.8197     ZZ     -68.0238
    Octopole Moments (Debye-Ang^2)
       XXX     -12.3031    XXY      -8.7110    XYY      -5.7264
       YYY      13.5458    XXZ     -20.6246    XYZ       2.6342
       YYZ       5.6555    XZZ       4.3965    YZZ       3.7420
       ZZZ      22.9146
    Hexadecapole Moments (Debye-Ang^3)
      XXXX    -889.2684   XXXY      17.7900   XXYY    -235.0786
      XYYY      11.4892   YYYY    -588.5634   XXXZ      -6.9442
      XXYZ      13.1630   XYYZ       0.0801   YYYZ      17.4058
      XXZZ    -209.2676   XYZZ       5.3277   YYZZ    -145.0912
      XZZZ      -3.6758   YZZZ      -0.7961   ZZZZ    -383.9259
 -----------------------------------------------------------------
 Calculating analytic gradient of the SCF energy
 Gradient of SCF Energy
            1           2           3           4           5           6
    1  -0.0003535   0.0022274   0.0006950   0.0017581  -0.0019383   0.0007033
[...]
 132. (0.00003) RY*(13) C  7             s( 49.89%)p 0.80( 39.69%)d 0.21( 10.43%)
 133. (0.00001) RY*(14) C  7             s( 19.27%)p 1.17( 22.45%)d 3.02( 58.28%)
 134. (0.00980) RY*( 1) O  8             s(  6.91%)p13.43( 92.78%)d 0.05(  0.31%)
                                         0.0000 -0.0028  0.2623 -0.0147  0.0042
                                         0.0165 -0.5038  0.0214 -0.0086  0.8180
                                         0.0021 -0.0024 -0.0635 -0.0008 -0.0138
                                         0.0228  0.0376  0.0145  0.0283
 135. (0.00109) RY*( 2) O  8             s( 56.65%)p 0.62( 35.29%)d 0.14(  8.06%)
                                         0.0000  0.0062  0.7414 -0.1080 -0.0712
                                         0.0174 -0.2817 -0.1806 -0.0018 -0.3984
                                        -0.0572 -0.0080  0.2778  0.0369 -0.0850
                                         0.1953  0.0964 -0.1394  0.0809
 136. (0.00057) RY*( 3) O  8             s( 10.60%)p 8.28( 87.76%)d 0.15(  1.64%)
                                         0.0000  0.0013  0.3057  0.0644 -0.0916
                                         0.0057  0.0553  0.0169 -0.0008 -0.1312
                                        -0.0649 -0.0098 -0.9220 -0.0524  0.0278
                                        -0.0019  0.0381 -0.0206 -0.1171
 137. (0.00029) RY*( 4) O  8             s( 26.10%)p 2.72( 70.87%)d 0.12(  3.04%)
                                         0.0000  0.0036  0.4972  0.0624  0.0992
                                         0.0095  0.7095  0.2624  0.0022  0.2808
                                         0.1807  0.0034  0.1454 -0.0604  0.1021
                                        -0.0417 -0.0214  0.0911  0.0971
 138. (0.00013) RY*( 5) O  8             s( 18.27%)p 3.30( 60.38%)d 1.17( 21.35%)
                                         0.0000 -0.0098  0.0511 -0.0820  0.4163
                                        -0.0302 -0.3299  0.2805 -0.0032 -0.2347
                                         0.5750  0.0123 -0.0400 -0.1668  0.1769
                                        -0.2077  0.0647  0.3667 -0.0193
 139. (0.00007) RY*( 6) O  8             s(  3.64%)p16.75( 60.94%)d 9.73( 35.42%)
 140. (0.00005) RY*( 7) O  8             s(  8.08%)p 9.23( 74.57%)d 2.15( 17.35%)
 141. (0.00001) RY*( 8) O  8             s( 96.75%)p 0.03(  2.72%)d 0.01(  0.53%)
 142. (0.00002) RY*( 9) O  8             s( 63.42%)p 0.57( 36.43%)d 0.00(  0.15%)
 143. (0.00001) RY*(10) O  8             s(  0.15%)p99.99( 35.94%)d99.99( 63.91%)
 144. (0.00001) RY*(11) O  8             s(  1.52%)p10.34( 15.70%)d54.52( 82.78%)
 145. (0.00001) RY*(12) O  8             s(  0.81%)p 7.80(  6.30%)d99.99( 92.89%)
 146. (0.00001) RY*(13) O  8             s(  5.50%)p 2.04( 11.20%)d15.14( 83.30%)
 147. (0.00001) RY*(14) O  8             s(  1.64%)p 6.18( 10.13%)d53.88( 88.24%)
 148. (0.00573) RY*( 1) C  9             s( 30.20%)p 2.30( 69.45%)d 0.01(  0.36%)
                                         0.0000  0.0047  0.5492  0.0177 -0.0042
                                        -0.0093 -0.7485  0.0388  0.0179 -0.0998
                                        -0.1722  0.0010  0.2835  0.1108  0.0513
                                         0.0012 -0.0177 -0.0240  0.0071
 149. (0.00161) RY*( 2) C  9             s( 18.13%)p 4.38( 79.40%)d 0.14(  2.48%)
                                         0.0000  0.0019  0.3107  0.2910  0.0062
                                        -0.0102  0.5154 -0.0801 -0.0059 -0.3409
                                        -0.0059 -0.0063  0.6344 -0.0548  0.0434
                                        -0.1169 -0.0808 -0.0215  0.0471
 150. (0.00093) RY*( 3) C  9             s( 28.44%)p 2.36( 67.26%)d 0.15(  4.30%)
                                         0.0000 -0.0008  0.3828 -0.3712 -0.0072
                                         0.0021  0.3067  0.1964  0.0032  0.6726
                                        -0.2198 -0.0052  0.1498  0.1292 -0.1978
                                         0.0493  0.0062 -0.0312  0.0214
 151. (0.00052) RY*( 4) C  9             s( 28.25%)p 2.06( 58.24%)d 0.48( 13.51%)
                                         0.0000  0.0076  0.4952  0.1928 -0.0008
                                        -0.0008  0.2483  0.1558 -0.0091 -0.2425
                                        -0.1647 -0.0090 -0.6095  0.1970  0.1495
                                        -0.0828  0.3026 -0.0625 -0.1023
 152. (0.00016) RY*( 5) C  9             s( 26.61%)p 0.59( 15.66%)d 2.17( 57.73%)
                                         0.0000 -0.0020  0.1064  0.5032  0.0402
                                         0.0022 -0.0040  0.0736 -0.0145  0.3105
                                        -0.0683  0.0303 -0.1534 -0.1594  0.2179
                                         0.1713 -0.3758  0.5225  0.2937
 153. (0.00014) RY*( 6) C  9             s(  5.85%)p 4.54( 26.56%)d11.55( 67.58%)
                                         0.0000 -0.0005  0.2041  0.0289  0.1266
                                         0.0361 -0.0101  0.0879 -0.0001 -0.1686
                                         0.2249 -0.0060 -0.0793 -0.4137 -0.5983
                                         0.4764  0.2093  0.0108  0.2168
 154. (0.00010) RY*( 7) C  9             s( 11.51%)p 5.59( 64.29%)d 2.10( 24.20%)
                                         0.0000 -0.0115  0.2122  0.0727  0.2542
                                        -0.0073 -0.0421 -0.5118 -0.0165  0.3449
                                         0.4965 -0.0082  0.0078 -0.1155  0.2002
                                        -0.2090  0.3965  0.0294  0.0120
 155. (0.00010) RY*( 8) C  9             s(  0.80%)p87.46( 69.84%)d36.78( 29.37%)
                                         0.0000  0.0021  0.0263 -0.0452  0.0724
                                         0.0164  0.0722 -0.5138  0.0040 -0.1057
                                         0.0104  0.0158 -0.0291  0.6453 -0.1691
                                         0.4456 -0.1335  0.2146 -0.0515
 156. (0.00005) RY*( 9) C  9             s(  1.73%)p51.82( 89.55%)d 5.05(  8.72%)
 157. (0.00001) RY*(10) C  9             s( 24.04%)p 0.37(  8.92%)d 2.79( 67.04%)
 158. (0.00001) RY*(11) C  9             s( 90.65%)p 0.09(  8.25%)d 0.01(  1.09%)
 159. (0.00001) RY*(12) C  9             s( 21.49%)p 1.07( 23.07%)d 2.58( 55.44%)
 160. (0.00001) RY*(13) C  9             s( 11.33%)p 0.55(  6.20%)d 7.28( 82.47%)
 161. (0.00001) RY*(14) C  9             s(  0.99%)p14.06( 13.93%)d85.89( 85.08%)
 162. (0.00158) RY*( 1) H 10             s(100.00%)
                                        -0.0018  1.0000
 163. (0.00065) RY*( 1) H 11             s(100.00%)
                                        -0.0010  1.0000
 164. (0.00119) RY*( 1) H 12             s(100.00%)
                                        -0.0010  1.0000
 165. (0.00161) RY*( 1) H 13             s(100.00%)
                                        -0.0019  1.0000
 166. (0.00122) RY*( 1) H 14             s(100.00%)
                                        -0.0020  1.0000
 167. (0.00138) RY*( 1) H 15             s(100.00%)
                                        -0.0021  1.0000
 168. (0.05618) BD*( 1) C  1- O  2       
               ( 67.06%)   0.8189* C  1 s( 33.01%)p 2.02( 66.67%)d 0.01(  0.33%)
                                         0.0001 -0.5722  0.0506  0.0086 -0.0020
                                         0.1273 -0.0161  0.0038 -0.5046 -0.0366
                                         0.0067 -0.6262 -0.0457  0.0036  0.0224
                                         0.0122 -0.0441  0.0200 -0.0170
               ( 32.94%)  -0.5739* O  2 s( 39.69%)p 1.51( 59.96%)d 0.01(  0.34%)
                                         0.0000 -0.6299  0.0098  0.0042 -0.0048
                                        -0.0870  0.0112 -0.0018  0.2900 -0.0084
                                        -0.0023  0.7124 -0.0147 -0.0002  0.0094
                                         0.0126 -0.0418  0.0112 -0.0364
 169. (0.06005) BD*( 1) C  1- O  3       
               ( 67.27%)   0.8202* C  1 s( 30.55%)p 2.26( 69.13%)d 0.01(  0.32%)
                                        -0.0001  0.5504 -0.0503 -0.0062  0.0034
                                         0.6193  0.0594 -0.0118  0.1755  0.0049
                                        -0.0011 -0.5227 -0.0079 -0.0034  0.0076
                                        -0.0461 -0.0157  0.0273  0.0037
               ( 32.73%)  -0.5721* O  3 s( 39.56%)p 1.52( 60.09%)d 0.01(  0.35%)
                                         0.0000  0.6288 -0.0115 -0.0038  0.0048
                                        -0.7104  0.0135  0.0005  0.1628 -0.0035
                                         0.0022  0.2635 -0.0144  0.0010 -0.0091
                                        -0.0407  0.0025  0.0400 -0.0110
 170. (0.29802) BD*( 2) C  1- O  3       
               ( 80.67%)   0.8982* C  1 s(  2.99%)p32.21( 96.35%)d 0.22(  0.65%)
                                         0.0000 -0.1693  0.0352  0.0042  0.0030
                                        -0.4681  0.0055 -0.0130  0.7001 -0.0500
                                         0.0204 -0.4996  0.0378 -0.0120  0.0516
                                        -0.0112 -0.0349 -0.0276  0.0420
               ( 19.33%)  -0.4397* O  3 s(  1.78%)p54.90( 97.96%)d 0.15(  0.26%)
                                         0.0000 -0.1334  0.0060 -0.0002 -0.0013
                                        -0.1822 -0.0052  0.0017  0.7416  0.0045
                                        -0.0005 -0.6296  0.0024 -0.0009 -0.0328
                                         0.0260  0.0179  0.0066 -0.0221
 171. (0.10778) BD*( 1) C  1- C  4       
               ( 52.95%)   0.7277* C  1 s( 34.06%)p 1.93( 65.77%)d 0.01(  0.17%)
                                        -0.0003 -0.5794 -0.0692 -0.0064  0.0027
                                         0.6065 -0.0121 -0.0135  0.4641  0.0107
                                        -0.0065  0.2718 -0.0087 -0.0044 -0.0288
                                        -0.0227 -0.0098 -0.0088  0.0151
               ( 47.05%)  -0.6859* C  4 s( 24.84%)p 3.02( 74.98%)d 0.01(  0.18%)
                                         0.0002 -0.4975  0.0295 -0.0021  0.0005
                                        -0.6564  0.0055 -0.0036 -0.4971  0.0291
                                         0.0140 -0.2660 -0.0044  0.0013 -0.0343
                                        -0.0111 -0.0133  0.0000  0.0174
 172. (0.05568) BD*( 1) C  4- C  5       
               ( 53.12%)   0.7288* C  4 s( 24.32%)p 3.11( 75.51%)d 0.01(  0.17%)
                                        -0.0003  0.4930 -0.0011 -0.0074 -0.0011
                                         0.0340  0.0072  0.0036 -0.0757 -0.0226
                                        -0.0044 -0.8646  0.0038  0.0093  0.0006
                                         0.0036 -0.0037  0.0033  0.0408
               ( 46.88%)  -0.6847* C  5 s( 27.84%)p 2.59( 72.05%)d 0.00(  0.11%)
                                         0.0005  0.5274 -0.0137  0.0056 -0.0017
                                        -0.0377  0.0065  0.0037  0.1293 -0.0203
                                        -0.0029  0.8377 -0.0084 -0.0037 -0.0012
                                        -0.0038  0.0095  0.0013  0.0319
 173. (0.01036) BD*( 1) C  4- O  6       
               ( 61.66%)   0.7853* C  4 s( 28.30%)p 2.53( 71.49%)d 0.01(  0.21%)
                                         0.0003 -0.5281 -0.0641  0.0015 -0.0009
                                        -0.0250 -0.0077  0.0005  0.7580  0.0476
                                         0.0054 -0.3694 -0.0288 -0.0027  0.0006
                                        -0.0006  0.0301  0.0330  0.0099
               ( 38.34%)  -0.6192* O  6 s( 34.28%)p 1.91( 65.44%)d 0.01(  0.28%)
                                        -0.0001 -0.5852  0.0180 -0.0048  0.0007
                                         0.0228  0.0001 -0.0007 -0.7384  0.0218
                                         0.0108  0.3285 -0.0110 -0.0059  0.0031
                                        -0.0015  0.0345  0.0375  0.0123
 174. (0.09854) BD*( 1) C  4- C  7       
               ( 53.04%)   0.7283* C  4 s( 22.61%)p 3.41( 77.19%)d 0.01(  0.21%)
                                        -0.0001  0.4753 -0.0128  0.0036  0.0020
                                        -0.7513 -0.0006 -0.0027  0.4060 -0.0155
                                        -0.0107  0.2055  0.0085  0.0012 -0.0355
                                        -0.0072  0.0091  0.0159 -0.0204
               ( 46.96%)  -0.6853* C  7 s( 37.71%)p 1.65( 62.17%)d 0.00(  0.12%)
                                         0.0001  0.6131 -0.0348  0.0074 -0.0019
                                         0.6582 -0.0184 -0.0144 -0.4222 -0.0009
                                         0.0059 -0.0974  0.0117  0.0031 -0.0234
                                        -0.0098  0.0081  0.0174 -0.0136
 175. (0.00823) BD*( 1) C  5- H 13       
               ( 40.82%)   0.6389* C  5 s( 23.68%)p 3.22( 76.15%)d 0.01(  0.18%)
                                         0.0000  0.4865  0.0087  0.0004  0.0007
                                        -0.6712  0.0017 -0.0001 -0.4932 -0.0086
                                         0.0005 -0.2600 -0.0050 -0.0045  0.0313
                                         0.0171  0.0121  0.0115 -0.0150
               ( 59.18%)  -0.7693* H 13 s(100.00%)
                                         1.0000  0.0019
 176. (0.00734) BD*( 1) C  5- H 14       
               ( 38.40%)   0.6197* C  5 s( 24.70%)p 3.04( 75.14%)d 0.01(  0.16%)
                                         0.0001 -0.4969 -0.0050  0.0040 -0.0002
                                        -0.7376 -0.0001 -0.0007  0.4001 -0.0031
                                         0.0015  0.2175 -0.0002  0.0050  0.0271
                                         0.0153 -0.0080 -0.0175  0.0150
               ( 61.60%)  -0.7849* H 14 s(100.00%)
                                        -1.0000 -0.0020
 177. (0.01105) BD*( 1) C  5- H 15       
               ( 41.65%)   0.6454* C  5 s( 23.78%)p 3.20( 76.04%)d 0.01(  0.18%)
                                         0.0001 -0.4876 -0.0079  0.0017 -0.0006
                                         0.0411 -0.0080  0.0002 -0.7599 -0.0058
                                         0.0041  0.4254  0.0122  0.0042  0.0040
                                        -0.0019  0.0319  0.0273  0.0052
               ( 58.35%)  -0.7639* H 15 s(100.00%)
                                        -1.0000 -0.0021
 178. (0.01100) BD*( 1) C  7- O  8       
               ( 67.45%)   0.8213* C  7 s( 31.05%)p 2.21( 68.67%)d 0.01(  0.28%)
                                         0.0000 -0.5519 -0.0771  0.0011 -0.0016
                                         0.6738  0.0524 -0.0037  0.3313  0.0364
                                         0.0032 -0.3434 -0.0311 -0.0004 -0.0304
                                         0.0290  0.0102 -0.0282  0.0102
               ( 32.55%)  -0.5705* O  8 s( 46.70%)p 1.13( 52.89%)d 0.01(  0.41%)
                                         0.0000 -0.6833  0.0106  0.0049 -0.0004
                                        -0.6085  0.0112 -0.0015 -0.2816  0.0086
                                         0.0009  0.2813 -0.0060 -0.0002 -0.0372
                                         0.0361  0.0168 -0.0292  0.0154
 179. (0.05266) BD*( 2) C  7- O  8       
               ( 73.82%)   0.8592* C  7 s(  0.03%)p99.99( 99.43%)d18.65(  0.54%)
                                         0.0000  0.0080  0.0146 -0.0034 -0.0005
                                         0.3177 -0.0175  0.0102  0.2992 -0.0204
                                         0.0099  0.8948 -0.0411  0.0223 -0.0263
                                        -0.0502 -0.0137 -0.0133  0.0431
               ( 26.18%)  -0.5117* O  8 s(  0.01%)p 1.00( 99.63%)d 0.00(  0.37%)
                                         0.0000 -0.0074 -0.0015  0.0005 -0.0024
                                         0.2943 -0.0015 -0.0030  0.2898 -0.0009
                                        -0.0014  0.9086 -0.0019 -0.0012  0.0212
                                         0.0361  0.0172  0.0061 -0.0398
 180. (0.05277) BD*( 1) C  7- C  9       
               ( 54.07%)   0.7353* C  7 s( 31.48%)p 2.17( 68.34%)d 0.01(  0.19%)
                                        -0.0001  0.5609  0.0025 -0.0098  0.0007
                                        -0.0542 -0.0089  0.0004  0.7863  0.0041
                                        -0.0057 -0.2489  0.0049  0.0018 -0.0042
                                         0.0023 -0.0229 -0.0341 -0.0131
               ( 45.93%)  -0.6777* C  9 s( 26.97%)p 2.70( 72.89%)d 0.01(  0.14%)
                                         0.0002  0.5192  0.0054 -0.0087  0.0004
                                         0.0829 -0.0118  0.0012 -0.8139  0.0019
                                         0.0063  0.2437  0.0052  0.0002 -0.0040
                                         0.0024 -0.0171 -0.0311 -0.0127
 181. (0.00739) BD*( 1) C  9- H 10       
               ( 40.73%)   0.6382* C  9 s( 23.24%)p 3.30( 76.59%)d 0.01(  0.17%)
                                        -0.0001  0.4820 -0.0078  0.0027  0.0002
                                        -0.6565  0.0006 -0.0005  0.0679  0.0055
                                         0.0083 -0.5746 -0.0054 -0.0027 -0.0025
                                         0.0359 -0.0015  0.0196  0.0050
               ( 59.27%)  -0.7698* H 10 s(100.00%)
                                         1.0000  0.0018
 182. (0.00614) BD*( 1) C  9- H 11       
               ( 38.76%)   0.6226* C  9 s( 25.70%)p 2.88( 74.13%)d 0.01(  0.16%)
                                         0.0001 -0.5070  0.0006 -0.0044  0.0009
                                        -0.7235 -0.0003  0.0039 -0.2861 -0.0074
                                        -0.0049  0.3686 -0.0046  0.0010 -0.0190
                                         0.0258  0.0100 -0.0205  0.0091
               ( 61.24%)  -0.7825* H 11 s(100.00%)
                                        -1.0000 -0.0010
 183. (0.00448) BD*( 1) C  9- H 12       
               ( 38.84%)   0.6233* C  9 s( 24.08%)p 3.15( 75.76%)d 0.01(  0.16%)
                                         0.0001 -0.4907  0.0032 -0.0032 -0.0004
                                         0.1904 -0.0120  0.0031 -0.4987 -0.0032
                                        -0.0073 -0.6873  0.0012  0.0029  0.0095
                                         0.0128 -0.0293  0.0091 -0.0190
               ( 61.16%)  -0.7820* H 12 s(100.00%)
                                        -1.0000 -0.0010
 SVNBO: NDIM =          183
 NBO state            0

 *******************************************************************************
Archival summary:
1\1\bt2600-16\OPT\HF\6-31+G*\456(2-,1)\emavera\WedApr2614:47:342017WedApr2614:47:342017\0\\#,OPT,HF,6-31+G*,\\-2,1\C\O,1,1.32897\C,1,1.56025,2,114.015\O,3,1.20416,1,125.391,2,11.5281,0\C,3,1.53709,1,118.287,2,-173.331,0\H,5,1.08073,3,113.82,1,2.69761,0\H,5,1.08463,3,107.905,1,122.969,0\H,5,1.09069,3,108.417,1,-119.661,0\C,1,1.56982,2,110.265,3,116.065,0\H,9,1.08255,1,106.592,2,60.3407,0\H,9,1.09111,1,108.397,2,-56.9527,0\H,9,1.09331,1,115.512,2,-179.701,0\C,1,1.57971,2,113.073,3,-121.085,0\O,13,1.24439,1,118.115,2,-90.2278,0\O,13,1.24855,1,115.897,2,89.8024,0\\HF=-492.211907\\@

 Total job time:  5639.81s(wall), 5651.90s(cpu) 
 Wed Apr 26 14:47:34 2017

        *************************************************************
        *                                                           *
        *  Thank you very much for using Q-Chem.  Have a nice day.  *
        *                                                           *
        *************************************************************


0 sent ACK to 0 
now end server 0 ... 
cleanup process ... done
