Jobname.Temp
FOPT      R                             6-31+G(d)           
Number of atoms                            I               15
Charge                                     I               -2
Multiplicity                               I                1
Number of electrons                        I               70
Number of alpha electrons                  I               35
Number of beta electrons                   I               35
Atomic numbers                             I   N=          15
           6           8           8           6           6           8
           6           8           6           1           1           1
           1           1           1
Current cartesian coordinates              R   N=          45
  2.42452356E+00  6.57641216E-01  3.32124110E-01  2.82212761E+00  2.89424299E+00
 -3.33382599E-01  4.14394509E+00 -4.80804151E-01  1.69329452E+00  6.42055630E-03
 -9.46348001E-01 -5.04853618E-01 -2.33444963E-01 -1.37316223E+00 -3.34299108E+00
  2.72364382E-01 -3.34847406E+00  6.33240771E-01 -2.35399246E+00  2.94470319E-01
  5.40308209E-01 -3.85311743E+00 -8.94194937E-01  1.97574944E+00 -2.85228991E+00
  2.90123883E+00 -1.50381481E-01 -1.85062255E+00  3.27510868E+00 -1.86918985E+00
 -1.60596563E+00  3.88183728E+00  1.13817338E+00 -4.96162900E+00  3.30386140E+00
 -3.66710994E-01 -2.07589896E+00 -2.17465467E+00 -4.06369641E+00  1.03809157E+00
 -3.14562389E+00 -3.38326261E+00  4.26166567E-01  2.90271580E-01 -4.45176740E+00
Nuclear charges                            R   N=          15
  6.00000000E+00  8.00000000E+00  8.00000000E+00  6.00000000E+00  6.00000000E+00
  8.00000000E+00  6.00000000E+00  8.00000000E+00  6.00000000E+00  1.00000000E+00
  1.00000000E+00  1.00000000E+00  1.00000000E+00  1.00000000E+00  1.00000000E+00
Number of basis functions                  I              183
Number of contracted shells                I               57
Number of primitive shells                 I              132
Highest angular momentum                   I                2
Largest degree of contraction              I                6
Shell types                                I   N=          57
           0          -1          -1          -1           2           0
          -1          -1          -1           2           0          -1
          -1          -1           2           0          -1          -1
          -1           2           0          -1          -1          -1
           2           0          -1          -1          -1           2
           0          -1          -1          -1           2           0
          -1          -1          -1           2           0          -1
          -1          -1           2           0           0           0
           0           0           0           0           0           0
           0           0           0
Number of primitives per shell             I   N=          57
           6           3           1           1           1           6
           3           1           1           1           6           3
           1           1           1           6           3           1
           1           1           6           3           1           1
           1           6           3           1           1           1
           6           3           1           1           1           6
           3           1           1           1           6           3
           1           1           1           3           1           3
           1           3           1           3           1           3
           1           3           1
Shell to atom map                          I   N=          57
           1           1           1           1           1           2
           2           2           2           2           3           3
           3           3           3           4           4           4
           4           4           5           5           5           5
           5           6           6           6           6           6
           7           7           7           7           7           8
           8           8           8           8           9           9
           9           9           9          10          10          11
          11          12          12          13          13          14
          14          15          15
Primitive exponents                        R   N=         132
  3.04752490E+03  4.57369510E+02  1.03948690E+02  2.92101550E+01  9.28666300E+00
  3.16392700E+00  7.86827240E+00  1.88128850E+00  5.44249300E-01  1.68714400E-01
  4.38000000E-02  8.00000000E-01  5.48467170E+03  8.25234950E+02  1.88046960E+02
  5.29645000E+01  1.68975700E+01  5.79963530E+00  1.55396160E+01  3.59993360E+00
  1.01376180E+00  2.70005800E-01  8.45000000E-02  8.00000000E-01  5.48467170E+03
  8.25234950E+02  1.88046960E+02  5.29645000E+01  1.68975700E+01  5.79963530E+00
  1.55396160E+01  3.59993360E+00  1.01376180E+00  2.70005800E-01  8.45000000E-02
  8.00000000E-01  3.04752490E+03  4.57369510E+02  1.03948690E+02  2.92101550E+01
  9.28666300E+00  3.16392700E+00  7.86827240E+00  1.88128850E+00  5.44249300E-01
  1.68714400E-01  4.38000000E-02  8.00000000E-01  3.04752490E+03  4.57369510E+02
  1.03948690E+02  2.92101550E+01  9.28666300E+00  3.16392700E+00  7.86827240E+00
  1.88128850E+00  5.44249300E-01  1.68714400E-01  4.38000000E-02  8.00000000E-01
  5.48467170E+03  8.25234950E+02  1.88046960E+02  5.29645000E+01  1.68975700E+01
  5.79963530E+00  1.55396160E+01  3.59993360E+00  1.01376180E+00  2.70005800E-01
  8.45000000E-02  8.00000000E-01  3.04752490E+03  4.57369510E+02  1.03948690E+02
  2.92101550E+01  9.28666300E+00  3.16392700E+00  7.86827240E+00  1.88128850E+00
  5.44249300E-01  1.68714400E-01  4.38000000E-02  8.00000000E-01  5.48467170E+03
  8.25234950E+02  1.88046960E+02  5.29645000E+01  1.68975700E+01  5.79963530E+00
  1.55396160E+01  3.59993360E+00  1.01376180E+00  2.70005800E-01  8.45000000E-02
  8.00000000E-01  3.04752490E+03  4.57369510E+02  1.03948690E+02  2.92101550E+01
  9.28666300E+00  3.16392700E+00  7.86827240E+00  1.88128850E+00  5.44249300E-01
  1.68714400E-01  4.38000000E-02  8.00000000E-01  1.87311370E+01  2.82539370E+00
  6.40121700E-01  1.61277800E-01  1.87311370E+01  2.82539370E+00  6.40121700E-01
  1.61277800E-01  1.87311370E+01  2.82539370E+00  6.40121700E-01  1.61277800E-01
  1.87311370E+01  2.82539370E+00  6.40121700E-01  1.61277800E-01  1.87311370E+01
  2.82539370E+00  6.40121700E-01  1.61277800E-01  1.87311370E+01  2.82539370E+00
  6.40121700E-01  1.61277800E-01
Contraction coefficients                   R   N=         132
  3.17779390E-03  2.43133190E-02  1.19238892E-01  4.02155213E-01  8.10498179E-01
  6.27542848E-01 -1.19332409E-01 -1.60854212E-01  1.14345648E+00  1.00000000E+00
  1.00000000E+00  1.00000000E+00  3.17155790E-03  2.41622794E-02  1.18550378E-01
  4.03072948E-01  8.14398079E-01  6.20976348E-01 -1.10777504E-01 -1.48026305E-01
  1.13076704E+00  1.00000000E+00  1.00000000E+00  1.00000000E+00  3.17155790E-03
  2.41622794E-02  1.18550378E-01  4.03072948E-01  8.14398079E-01  6.20976348E-01
 -1.10777504E-01 -1.48026305E-01  1.13076704E+00  1.00000000E+00  1.00000000E+00
  1.00000000E+00  3.17779390E-03  2.43133190E-02  1.19238892E-01  4.02155213E-01
  8.10498179E-01  6.27542848E-01 -1.19332409E-01 -1.60854212E-01  1.14345648E+00
  1.00000000E+00  1.00000000E+00  1.00000000E+00  3.17779390E-03  2.43133190E-02
  1.19238892E-01  4.02155213E-01  8.10498179E-01  6.27542848E-01 -1.19332409E-01
 -1.60854212E-01  1.14345648E+00  1.00000000E+00  1.00000000E+00  1.00000000E+00
  3.17155790E-03  2.41622794E-02  1.18550378E-01  4.03072948E-01  8.14398079E-01
  6.20976348E-01 -1.10777504E-01 -1.48026305E-01  1.13076704E+00  1.00000000E+00
  1.00000000E+00  1.00000000E+00  3.17779390E-03  2.43133190E-02  1.19238892E-01
  4.02155213E-01  8.10498179E-01  6.27542848E-01 -1.19332409E-01 -1.60854212E-01
  1.14345648E+00  1.00000000E+00  1.00000000E+00  1.00000000E+00  3.17155790E-03
  2.41622794E-02  1.18550378E-01  4.03072948E-01  8.14398079E-01  6.20976348E-01
 -1.10777504E-01 -1.48026305E-01  1.13076704E+00  1.00000000E+00  1.00000000E+00
  1.00000000E+00  3.17779390E-03  2.43133190E-02  1.19238892E-01  4.02155213E-01
  8.10498179E-01  6.27542848E-01 -1.19332409E-01 -1.60854212E-01  1.14345648E+00
  1.00000000E+00  1.00000000E+00  1.00000000E+00  5.80143482E-02  4.06558998E-01
  1.40946902E+00  1.73205081E+00  5.80143482E-02  4.06558998E-01  1.40946902E+00
  1.73205081E+00  5.80143482E-02  4.06558998E-01  1.40946902E+00  1.73205081E+00
  5.80143482E-02  4.06558998E-01  1.40946902E+00  1.73205081E+00  5.80143482E-02
  4.06558998E-01  1.40946902E+00  1.73205081E+00  5.80143482E-02  4.06558998E-01
  1.40946902E+00  1.73205081E+00
P(S=P) Contraction coefficients            R   N=         132
  0.00000000E+00  0.00000000E+00  0.00000000E+00  0.00000000E+00  0.00000000E+00
  0.00000000E+00  1.19509939E-01  5.48062410E-01  1.28917971E+00  1.73205081E+00
  1.73205081E+00  0.00000000E+00  0.00000000E+00  0.00000000E+00  0.00000000E+00
  0.00000000E+00  0.00000000E+00  0.00000000E+00  1.22757888E-01  5.88469108E-01
  1.25947563E+00  1.73205081E+00  1.73205081E+00  0.00000000E+00  0.00000000E+00
  0.00000000E+00  0.00000000E+00  0.00000000E+00  0.00000000E+00  0.00000000E+00
  1.22757888E-01  5.88469108E-01  1.25947563E+00  1.73205081E+00  1.73205081E+00
  0.00000000E+00  0.00000000E+00  0.00000000E+00  0.00000000E+00  0.00000000E+00
  0.00000000E+00  0.00000000E+00  1.19509939E-01  5.48062410E-01  1.28917971E+00
  1.73205081E+00  1.73205081E+00  0.00000000E+00  0.00000000E+00  0.00000000E+00
  0.00000000E+00  0.00000000E+00  0.00000000E+00  0.00000000E+00  1.19509939E-01
  5.48062410E-01  1.28917971E+00  1.73205081E+00  1.73205081E+00  0.00000000E+00
  0.00000000E+00  0.00000000E+00  0.00000000E+00  0.00000000E+00  0.00000000E+00
  0.00000000E+00  1.22757888E-01  5.88469108E-01  1.25947563E+00  1.73205081E+00
  1.73205081E+00  0.00000000E+00  0.00000000E+00  0.00000000E+00  0.00000000E+00
  0.00000000E+00  0.00000000E+00  0.00000000E+00  1.19509939E-01  5.48062410E-01
  1.28917971E+00  1.73205081E+00  1.73205081E+00  0.00000000E+00  0.00000000E+00
  0.00000000E+00  0.00000000E+00  0.00000000E+00  0.00000000E+00  0.00000000E+00
  1.22757888E-01  5.88469108E-01  1.25947563E+00  1.73205081E+00  1.73205081E+00
  0.00000000E+00  0.00000000E+00  0.00000000E+00  0.00000000E+00  0.00000000E+00
  0.00000000E+00  0.00000000E+00  1.19509939E-01  5.48062410E-01  1.28917971E+00
  1.73205081E+00  1.73205081E+00  0.00000000E+00  0.00000000E+00  0.00000000E+00
  0.00000000E+00  0.00000000E+00  0.00000000E+00  0.00000000E+00  0.00000000E+00
  0.00000000E+00  0.00000000E+00  0.00000000E+00  0.00000000E+00  0.00000000E+00
  0.00000000E+00  0.00000000E+00  0.00000000E+00  0.00000000E+00  0.00000000E+00
  0.00000000E+00  0.00000000E+00  0.00000000E+00  0.00000000E+00  0.00000000E+00
  0.00000000E+00  0.00000000E+00
Coordinates of each shell                  R   N=         171
  2.42452356E+00  6.57641216E-01  3.32124110E-01  2.42452356E+00  6.57641216E-01
  3.32124110E-01  2.42452356E+00  6.57641216E-01  3.32124110E-01  2.42452356E+00
  6.57641216E-01  3.32124110E-01  2.42452356E+00  6.57641216E-01  3.32124110E-01
  2.82212761E+00  2.89424299E+00 -3.33382599E-01  2.82212761E+00  2.89424299E+00
 -3.33382599E-01  2.82212761E+00  2.89424299E+00 -3.33382599E-01  2.82212761E+00
  2.89424299E+00 -3.33382599E-01  2.82212761E+00  2.89424299E+00 -3.33382599E-01
  4.14394509E+00 -4.80804151E-01  1.69329452E+00  4.14394509E+00 -4.80804151E-01
  1.69329452E+00  4.14394509E+00 -4.80804151E-01  1.69329452E+00  4.14394509E+00
 -4.80804151E-01  1.69329452E+00  4.14394509E+00 -4.80804151E-01  1.69329452E+00
  6.42055630E-03 -9.46348001E-01 -5.04853618E-01  6.42055630E-03 -9.46348001E-01
 -5.04853618E-01  6.42055630E-03 -9.46348001E-01 -5.04853618E-01  6.42055630E-03
 -9.46348001E-01 -5.04853618E-01  6.42055630E-03 -9.46348001E-01 -5.04853618E-01
 -2.33444963E-01 -1.37316223E+00 -3.34299108E+00 -2.33444963E-01 -1.37316223E+00
 -3.34299108E+00 -2.33444963E-01 -1.37316223E+00 -3.34299108E+00 -2.33444963E-01
 -1.37316223E+00 -3.34299108E+00 -2.33444963E-01 -1.37316223E+00 -3.34299108E+00
  2.72364382E-01 -3.34847406E+00  6.33240771E-01  2.72364382E-01 -3.34847406E+00
  6.33240771E-01  2.72364382E-01 -3.34847406E+00  6.33240771E-01  2.72364382E-01
 -3.34847406E+00  6.33240771E-01  2.72364382E-01 -3.34847406E+00  6.33240771E-01
 -2.35399246E+00  2.94470319E-01  5.40308209E-01 -2.35399246E+00  2.94470319E-01
  5.40308209E-01 -2.35399246E+00  2.94470319E-01  5.40308209E-01 -2.35399246E+00
  2.94470319E-01  5.40308209E-01 -2.35399246E+00  2.94470319E-01  5.40308209E-01
 -3.85311743E+00 -8.94194937E-01  1.97574944E+00 -3.85311743E+00 -8.94194937E-01
  1.97574944E+00 -3.85311743E+00 -8.94194937E-01  1.97574944E+00 -3.85311743E+00
 -8.94194937E-01  1.97574944E+00 -3.85311743E+00 -8.94194937E-01  1.97574944E+00
 -2.85228991E+00  2.90123883E+00 -1.50381481E-01 -2.85228991E+00  2.90123883E+00
 -1.50381481E-01 -2.85228991E+00  2.90123883E+00 -1.50381481E-01 -2.85228991E+00
  2.90123883E+00 -1.50381481E-01 -2.85228991E+00  2.90123883E+00 -1.50381481E-01
 -1.85062255E+00  3.27510868E+00 -1.86918985E+00 -1.85062255E+00  3.27510868E+00
 -1.86918985E+00 -1.60596563E+00  3.88183728E+00  1.13817338E+00 -1.60596563E+00
  3.88183728E+00  1.13817338E+00 -4.96162900E+00  3.30386140E+00 -3.66710994E-01
 -4.96162900E+00  3.30386140E+00 -3.66710994E-01 -2.07589896E+00 -2.17465467E+00
 -4.06369641E+00 -2.07589896E+00 -2.17465467E+00 -4.06369641E+00  1.03809157E+00
 -3.14562389E+00 -3.38326261E+00  1.03809157E+00 -3.14562389E+00 -3.38326261E+00
  4.26166567E-01  2.90271580E-01 -4.45176740E+00  4.26166567E-01  2.90271580E-01
 -4.45176740E+00
SCF Energy                                 R     -4.921341969112946E+02
Dipole_Data                                R   N=           3
 -6.08464274E+00  4.78520138E+00 -4.55112039E+00
Quadrupole_Data                            R   N=           6
 -9.27374625E+01 -7.33226307E+00 -8.41219437E+01 -1.24577979E-01  6.13597459E+00
 -6.79112437E+01
Octapole_Data                              R   N=          10
 -1.48703993E+01 -5.83916914E+00 -8.73962184E+00  7.57714625E+00 -2.26651136E+01
  1.45677505E+00  3.66372602E+00  2.81307346E+00  4.35154387E+00  2.17129045E+01
Hexadecapole_Data                          R   N=          15
 -9.06820108E+02 -1.43284983E+01 -2.40606523E+02 -9.98933215E+00 -5.79997549E+02
 -4.90154552E+00  9.10726181E+00  1.77536643E+00  7.70234760E+00 -2.11784192E+02
  5.73366802E-01 -1.42702802E+02 -6.07689459E+00 -9.03396871E+00 -3.85240333E+02
Cartesian Forces                           R   N=          45
  9.75416748E-02 -2.54957295E-02  4.02171118E-02 -3.30064498E-02  2.85892762E-03
 -1.44471133E-02 -6.40232246E-02  3.01549678E-02 -4.24515596E-02  1.59403334E-02
 -7.46508584E-02  7.35523521E-02  2.48378622E-02 -3.07054587E-02 -1.99913036E-02
 -1.72840184E-02  3.50377032E-02 -3.21109757E-02 -5.67850631E-02 -8.26593344E-02
  5.84190948E-02  4.35011003E-02  5.56465643E-02 -5.30749127E-02 -1.80794053E-02
  1.92750379E-02 -2.11691588E-02 -5.00466981E-03  4.92276498E-03 -1.40943795E-02
 -1.78082701E-02  1.98511472E-02  1.11293245E-02  3.55890241E-02  3.92037740E-03
  1.65007984E-02  1.29630974E-02  2.03179888E-02  1.51735859E-02 -1.30367252E-02
  3.99561640E-02 -1.62899012E-02 -5.34526574E-03 -1.84302622E-02 -1.36296300E-03
Current cartesian coordinates              R   N=          45
  2.42122370E+00  6.15861250E-01  3.30130957E-01  2.57329875E+00  2.85104545E+00
 -4.36441382E-01  4.16355630E+00 -3.86318156E-01  1.66097100E+00  2.69944814E-02
 -1.05906125E+00 -4.31812011E-01 -1.74515681E-01 -1.39816509E+00 -3.31151371E+00
  2.37494897E-01 -3.45260827E+00  6.18812971E-01 -2.35803459E+00  2.41640109E-01
  5.73328894E-01 -3.91410061E+00 -8.31247464E-01  1.94818296E+00 -2.80969417E+00
  2.90839385E+00 -1.46032122E-01 -1.81136074E+00  3.30762666E+00 -1.87565184E+00
 -1.64272284E+00  3.96544471E+00  1.16717079E+00 -4.86347675E+00  3.33364733E+00
 -3.50900906E-01 -2.03130121E+00 -2.11945998E+00 -3.98096593E+00  1.07027602E+00
 -3.10553902E+00 -3.52072125E+00  4.59040878E-01  2.64150236E-01 -4.39790402E+00
SCF Energy                                 R     -4.921723103266343E+02
Dipole_Data                                R   N=           3
 -5.57570714E+00  4.57201570E+00 -4.14762580E+00
Quadrupole_Data                            R   N=           6
 -9.17107753E+01 -6.77672613E+00 -8.47864537E+01 -1.08646948E-01  6.11697813E+00
 -6.74504526E+01
Octapole_Data                              R   N=          10
 -1.25974408E+01 -6.34876797E+00 -7.76705830E+00  1.01152796E+01 -2.21149605E+01
  1.64436615E+00  3.87355632E+00  2.91244903E+00  4.08708910E+00  2.15377722E+01
Hexadecapole_Data                          R   N=          15
 -8.90493299E+02 -7.66958807E+00 -2.37110781E+02 -5.15646355E+00 -5.91597073E+02
 -1.87707730E+00  8.53446306E+00  2.91847429E+00  8.69153105E+00 -2.07094711E+02
  7.41522171E-01 -1.43473317E+02 -2.54952283E+00 -8.75704160E+00 -3.76594163E+02
Cartesian Forces                           R   N=          45
  6.00286053E-02 -1.27771291E-02  2.59505959E-02 -1.51671796E-02  1.14475689E-03
 -8.40167130E-03 -4.45435798E-02  1.78309523E-02 -2.96073912E-02  1.34849965E-02
 -6.26801168E-02  5.30713755E-02  1.49730500E-02 -1.92275813E-02 -1.43838280E-02
 -1.21284972E-02  3.01022708E-02 -2.06219273E-02 -3.68552027E-02 -4.09465383E-02
  3.12666857E-02  2.88686813E-02  2.85152917E-02 -3.08757053E-02 -1.63961065E-03
  1.25223417E-02 -1.84650947E-02 -5.52233147E-03  1.71789775E-03 -7.24662803E-03
 -1.65390832E-02  1.13611338E-02  6.58493397E-03  1.95401260E-02  2.68726835E-03
  1.33921349E-02  6.26456968E-03  1.34372970E-02  8.77139739E-03 -6.48030504E-03
  2.73142349E-02 -8.45985950E-03 -4.28423917E-03 -1.10020798E-02 -9.75018083E-04
Current cartesian coordinates              R   N=          45
  2.49533919E+00  5.26120230E-01  3.45482110E-01  2.60795764E+00  2.71385444E+00
 -5.63533644E-01  4.20589794E+00 -4.47833039E-01  1.61207243E+00  7.15958753E-02
 -1.14482535E+00 -3.41149795E-01 -1.14393817E-01 -1.38184037E+00 -3.26208626E+00
  1.83749030E-01 -3.48987099E+00  6.64176886E-01 -2.33979103E+00  2.27732035E-01
  5.99699562E-01 -3.90213968E+00 -7.84867492E-01  1.92898922E+00 -2.85093539E+00
  2.92035672E+00 -1.82456974E-01 -1.90582165E+00  3.35407594E+00 -1.93759436E+00
 -1.82155298E+00  4.10383741E+00  1.13384416E+00 -4.88514490E+00  3.26399095E+00
 -3.29906767E-01 -2.00001739E+00 -1.99228066E+00 -3.88374929E+00  1.09026416E+00
 -3.02042275E+00 -3.63291965E+00  5.11671453E-01  2.87383287E-01 -4.30421325E+00
SCF Energy                                 R     -4.921925259101102E+02
Dipole_Data                                R   N=           3
 -5.38422179E+00  4.39298559E+00 -3.66318434E+00
Quadrupole_Data                            R   N=           6
 -9.12763226E+01 -6.72703635E+00 -8.44358644E+01  2.43253138E-01  6.52048363E+00
 -6.72463796E+01
Octapole_Data                              R   N=          10
 -1.22779440E+01 -7.68043080E+00 -6.86305272E+00  1.03557562E+01 -2.04512271E+01
  2.48761148E+00  4.32490882E+00  3.37152157E+00  3.87550643E+00  2.19328872E+01
Hexadecapole_Data                          R   N=          15
 -8.98908171E+02  3.67276088E-02 -2.37763447E+02  1.13657546E+00 -5.85309294E+02
  1.61102161E+00  1.15652190E+01  3.69935779E+00  1.48308613E+01 -2.06519402E+02
  1.96635257E+00 -1.42556954E+02  2.74522505E-02 -3.68857583E+00 -3.69550020E+02
Cartesian Forces                           R   N=          45
  2.18380715E-02 -3.55594312E-03 -1.61323376E-03 -1.00825544E-02  6.19110861E-03
 -3.34557040E-03 -1.19851650E-02  3.41942522E-03 -2.89799888E-03  7.67645453E-03
 -3.67890490E-02  3.26103509E-02  4.54739924E-03 -6.39806458E-03 -7.24305938E-03
 -6.54217077E-03  1.42290511E-02 -1.17586648E-02 -1.02429485E-02 -1.06352958E-02
  6.33637930E-03  4.24817131E-03  7.40477455E-03 -5.72380440E-03  9.64587380E-03
  4.89919231E-03 -1.34364187E-02 -3.80144100E-03 -3.56898993E-04 -4.75675592E-03
 -1.05367345E-02  5.54752367E-03  5.65075927E-03  5.86694418E-03  3.19382031E-03
  7.98720848E-03  8.99962821E-04  6.52984523E-03  3.27441183E-03  1.57872106E-03
  1.01333099E-02 -4.14472090E-03 -3.11058426E-03 -3.81279946E-03 -9.38882593E-04
Current cartesian coordinates              R   N=          45
  2.50291306E+00  4.92006224E-01  3.08292396E-01  2.41586688E+00  2.73060802E+00
 -4.92255648E-01  4.17563402E+00 -3.66872575E-01  1.67208361E+00  9.84197989E-02
 -1.24400517E+00 -3.04126264E-01 -1.24790975E-01 -1.38528580E+00 -3.24901453E+00
  1.85537813E-01 -3.56444922E+00  6.66868114E-01 -2.30568372E+00  1.96884722E-01
  6.04965239E-01 -3.88740068E+00 -7.48083296E-01  1.94522857E+00 -2.77292099E+00
  2.90658662E+00 -2.32402569E-01 -1.86292370E+00  3.31133706E+00 -2.01474089E+00
 -1.79101469E+00  4.12944865E+00  1.08458867E+00 -4.79895415E+00  3.26627011E+00
 -3.24640459E-01 -2.03130303E+00 -1.95317135E+00 -3.82972086E+00  1.09493145E+00
 -2.96136041E+00 -3.74950983E+00  4.48367360E-01  3.25496789E-01 -4.23896116E+00
SCF Energy                                 R     -4.921976094578973E+02
Dipole_Data                                R   N=           3
 -4.94991432E+00  4.17382071E+00 -3.71133742E+00
Quadrupole_Data                            R   N=           6
 -9.02236864E+01 -6.34573421E+00 -8.50497658E+01 -3.74989045E-01  6.02416447E+00
 -6.74512813E+01
Octapole_Data                              R   N=          10
 -9.48962028E+00 -7.90741429E+00 -6.63884438E+00  1.16690338E+01 -2.06210641E+01
  1.82393726E+00  4.70548979E+00  3.46252493E+00  3.99532412E+00  2.29303382E+01
Hexadecapole_Data                          R   N=          15
 -8.72837015E+02  3.34720938E+00 -2.34023277E+02  2.34007389E+00 -5.95764776E+02
 -4.36203007E+00  1.03722903E+01  1.53180025E+00  1.44948679E+01 -2.03238036E+02
  1.65306545E+00 -1.44443643E+02 -3.59074988E+00 -4.86587532E+00 -3.72577985E+02
Cartesian Forces                           R   N=          45
 -7.31860161E-03  1.04180866E-02  1.80972502E-02  2.96684530E-03 -2.53847207E-03
 -9.05782853E-03  4.56253239E-03 -4.01376940E-03 -5.35730241E-03  8.10422849E-03
 -1.92724512E-02  1.20518254E-02 -2.29432063E-04 -4.56467834E-03 -4.78495805E-03
 -3.31021933E-03  6.45116020E-03 -7.04396416E-03 -1.59466303E-03  2.02508585E-04
  3.07397545E-03 -4.59074736E-04  1.33595572E-03 -1.24950522E-03  6.00184761E-03
  2.12224899E-03 -8.85315110E-03 -3.95570009E-03  2.00639100E-05 -1.43379823E-03
 -6.60446043E-03  2.42527330E-03  2.88047637E-03  1.10011852E-03  1.70137449E-03
  4.35770266E-03  6.34313751E-04  2.97343537E-03  8.29163991E-04  2.26738973E-03
  4.17566848E-03 -2.65444191E-03 -2.16512450E-03 -1.43640459E-03 -8.55444445E-04
Current cartesian coordinates              R   N=          45
  2.47863829E+00  4.77711547E-01  3.75226603E-01  2.37589822E+00  2.64054485E+00
 -6.28866830E-01  4.24749953E+00 -3.73645786E-01  1.60246117E+00  1.07680905E-01
 -1.32423858E+00 -2.23493781E-01 -1.03573491E-01 -1.35648544E+00 -3.19864822E+00
  1.61838540E-01 -3.63275383E+00  6.83178796E-01 -2.31127417E+00  1.71644689E-01
  6.28540326E-01 -3.93775114E+00 -7.19316311E-01  1.94465415E+00 -2.74749362E+00
  2.89442165E+00 -2.73894313E-01 -1.85668628E+00  3.28393339E+00 -2.07167818E+00
 -1.85150522E+00  4.17001948E+00  1.05761548E+00 -4.76871068E+00  3.25126414E+00
 -3.40001110E-01 -2.01936145E+00 -1.88124247E+00 -3.77253779E+00  1.13858074E+00
 -2.86275999E+00 -3.81630573E+00  4.32898265E-01  3.96313029E-01 -4.11959619E+00
SCF Energy                                 R     -4.922000271081228E+02
Dipole_Data                                R   N=           3
 -4.82880695E+00  4.16547850E+00 -3.35256568E+00
Quadrupole_Data                            R   N=           6
 -9.10893583E+01 -6.10099994E+00 -8.48501937E+01  1.80887752E-01  6.33107418E+00
 -6.73541591E+01
Octapole_Data                              R   N=          10
 -9.63667586E+00 -8.27554951E+00 -5.81645901E+00  1.25347845E+01 -2.02987764E+01
  2.24705734E+00  4.81379021E+00  3.83650382E+00  3.88748421E+00  2.23272844E+01
Hexadecapole_Data                          R   N=          15
 -8.88553853E+02  6.40808766E+00 -2.33622200E+02  5.47746334E+00 -5.94901906E+02
 -6.14069870E-01  1.26492971E+01  2.60986056E+00  2.00655202E+01 -2.03765773E+02
  2.02681885E+00 -1.43835790E+02 -6.90039538E-01 -1.50037262E-01 -3.66759210E+02
Cartesian Forces                           R   N=          45
 -2.15076175E-03  2.13002247E-03 -1.50873447E-02  4.77092070E-03 -3.60893638E-03
  7.52972641E-03  4.40557086E-03 -3.58248266E-04  6.96216263E-03 -1.61460041E-04
  3.89212315E-03  3.66779942E-03 -1.40535903E-03 -1.42238879E-03 -2.86502332E-03
 -9.79962810E-04 -1.92454969E-03  4.75336457E-04  2.11446893E-03  4.88709698E-03
 -2.30214500E-03 -2.65993258E-03 -2.03527523E-03  2.66090470E-03  3.27012255E-03
  4.78626371E-05 -3.60087118E-03 -3.37676832E-03 -1.47472535E-04  1.83161449E-03
 -1.98729520E-03 -1.03029282E-04  6.65642782E-04 -2.65497779E-03  2.21563726E-04
  1.14297650E-03  4.09453881E-05 -8.03005377E-04 -4.23635012E-04  2.19648307E-03
 -5.11772345E-04 -7.47335849E-04 -1.42199398E-03 -2.63991060E-04  9.01916662E-05
Current cartesian coordinates              R   N=          45
  2.62225571E+00  3.72722798E-01  4.00608986E-01  2.65513313E+00  2.54747789E+00
 -5.75662236E-01  4.28889865E+00 -5.49162386E-01  1.72659271E+00  1.45541924E-01
 -1.30207333E+00 -2.18832711E-01 -8.05314864E-02 -1.33206843E+00 -3.21441914E+00
  1.10194019E-01 -3.61797892E+00  6.37808381E-01 -2.26506026E+00  2.35073743E-01
  6.68819138E-01 -3.84836705E+00 -6.45337894E-01  2.04399390E+00 -2.85918442E+00
  2.91259285E+00 -3.22791553E-01 -2.12235635E+00  3.28939862E+00 -2.18775998E+00
 -2.00069488E+00  4.29471091E+00  9.25971573E-01 -4.89618838E+00  3.16823647E+00
 -2.57129380E-01 -1.99971443E+00 -1.85416195E+00 -3.76549571E+00  1.17506906E+00
 -2.80801752E+00 -3.87616331E+00  4.21683203E-01  4.23997529E-01 -4.13888628E+00
SCF Energy                                 R     -4.922006626584496E+02
Dipole_Data                                R   N=           3
 -5.10085435E+00  4.24717680E+00 -3.38460380E+00
Quadrupole_Data                            R   N=           6
 -9.13068612E+01 -6.36814693E+00 -8.41001126E+01 -2.07206872E-02  6.17999081E+00
 -6.80088472E+01
Octapole_Data                              R   N=          10
 -1.20793896E+01 -9.04708643E+00 -5.77118565E+00  1.22280657E+01 -2.04403832E+01
  3.03184105E+00  5.66529674E+00  3.84747848E+00  3.55183092E+00  2.28012635E+01
Hexadecapole_Data                          R   N=          15
 -9.14797504E+02  1.49736384E+01 -2.38304981E+02  1.07552809E+01 -5.81727071E+02
 -5.82289242E+00  1.46455718E+01  8.42843524E-01  1.95585416E+01 -2.12572119E+02
  4.59352477E+00 -1.44045647E+02 -4.17726086E+00  9.30873625E-01 -3.80599704E+02
Cartesian Forces                           R   N=          45
 -8.11699627E-03  5.63230376E-03 -3.48269489E-03 -9.21382003E-04 -3.82029843E-03
  2.60450484E-03  2.03287627E-03 -1.02192302E-03  1.18652238E-03  3.52150877E-03
  2.59664506E-03 -5.30726529E-03 -1.73626572E-03  3.90049105E-03  1.61443749E-03
 -7.97032744E-04 -6.03506451E-03  4.30687804E-03 -1.95261944E-04  4.02777351E-03
 -5.88175299E-03  6.90786375E-04 -1.30496937E-03  3.50697569E-03  4.90416360E-03
 -4.96698426E-04  2.35954546E-03  8.44831596E-05 -9.73836069E-04 -2.98110360E-04
  1.76175964E-03 -1.03377653E-03  3.60091434E-04 -1.74016644E-03 -4.43540773E-04
 -1.43979708E-03 -7.46572508E-04 -2.30857091E-03 -4.43202687E-04  1.49437095E-03
 -1.51551516E-03  1.27664718E-03 -2.36271111E-04  2.79697984E-03 -3.62779228E-04
Current cartesian coordinates              R   N=          45
  2.55634773E+00  3.77358907E-01  4.15012827E-01  2.56439631E+00  2.58152667E+00
 -4.73021894E-01  4.24706866E+00 -5.58590808E-01  1.71127568E+00  1.17392009E-01
 -1.31707333E+00 -2.39186216E-01 -9.81318972E-02 -1.32468086E+00 -3.22755883E+00
  8.78518686E-02 -3.64846606E+00  6.36495989E-01 -2.27292646E+00  2.31202302E-01
  6.45074895E-01 -3.80023513E+00 -6.01163387E-01  2.11593245E+00 -2.81728332E+00
  2.90694293E+00 -3.41306546E-01 -2.11721282E+00  3.24003823E+00 -2.22630974E+00
 -1.86230537E+00  4.25465048E+00  8.73778745E-01 -4.85056215E+00  3.22127184E+00
 -2.36762626E-01 -1.96031586E+00 -2.01176466E+00 -3.80624074E+00  1.28462357E+00
 -2.69900918E+00 -3.87151872E+00  2.67971317E-01  4.83167280E-01 -4.12901088E+00
SCF Energy                                 R     -4.922017937463591E+02
Dipole_Data                                R   N=           3
 -5.04507479E+00  4.33604003E+00 -3.59403776E+00
Quadrupole_Data                            R   N=           6
 -9.06180871E+01 -5.91933671E+00 -8.45141991E+01  2.73048555E-02  5.81965703E+00
 -6.80238028E+01
Octapole_Data                              R   N=          10
 -1.23030513E+01 -8.71099824E+00 -5.72635150E+00  1.35457633E+01 -2.06245649E+01
  2.63418330E+00  5.65547361E+00  4.39646576E+00  3.74202844E+00  2.29146214E+01
Hexadecapole_Data                          R   N=          15
 -8.89268417E+02  1.77900181E+01 -2.35078587E+02  1.14892086E+01 -5.88563391E+02
 -6.94419656E+00  1.31630181E+01  8.00734039E-02  1.74057529E+01 -2.09267597E+02
  5.32772688E+00 -1.45091229E+02 -3.67576406E+00 -7.96072976E-01 -3.83925922E+02
Cartesian Forces                           R   N=          45
  3.53487020E-04  5.86860906E-04  2.37372724E-03 -2.22739249E-03 -6.64376121E-04
 -1.35876688E-03 -6.95037455E-04 -7.86153858E-04 -1.10812790E-03 -1.75810841E-03
 -2.28591592E-03 -1.36286028E-03  1.93832973E-03 -6.35119529E-04  1.03742790E-03
 -7.03335045E-04  3.53504338E-03 -2.52485530E-03  2.16726144E-03  1.36114414E-03
  4.31347766E-03 -3.32387431E-04  2.61710548E-04 -9.54737402E-04  4.57499800E-04
 -2.40294173E-04  5.84848567E-04 -4.12411656E-04  2.44002017E-04 -6.27511437E-04