
Running Job 1 of 3 ts1010.qcin
qchem ts1010.qcin_15206.0 /tmp/ts1010.qcin/ 1
/programs/x86_64/lib/qchem-4.3.2/bin/mpi/mpirun_qchem -machinefile /var/spool/torque/aux//119441.vali -np 1 /programs/x86_64/lib/qchem-4.3.2/exe/qcprog.exe ts1010.qcin_15206.0 /tmp/ts1010.qcin/

Process 0 of 1 is on bt2600-11.csail.mit.edu - thread support 0
initial socket setup ...start
initial socket setup ...done 
now start server 0 ... 

cmd = ssh thor /programs/x86_64/lib/qchem-4.3.2/bin/get_hostid 202450371 > /tmp/ts1010.qcin/lic.dat
                  Welcome to Q-Chem
     A Quantum Leap Into The Future Of Chemistry


 Q-Chem 4.3, Q-Chem, Inc., Pleasanton, CA (2015)

 Y. Shao,  Z. Gan,  E. Epifanovsky,  A. T. B. Gilbert,  M. Wormit,  
 J. Kussmann,  A. W. Lange,  A. Behn,  J. Deng,  X. Feng,  D. Ghosh,  
 M. Goldey,  P. R. Horn,  L. D. Jacobson,  I. Kaliman,  R. Z. Khaliullin,  
 T. Kus,  A. Landau,  J. Liu,  E. I. Proynov,  Y. M. Rhee,  R. M. Richard,  
 M. A. Rohrdanz,  R. P. Steele,  E. J. Sundstrom,  H. L. Woodcock III,  
 P. M. Zimmerman,  D. Zuev,  B. Albrecht,  E. Alguire,  B. Austin,  
 S. A. Baeppler,  G. J. O. Beran,  Y. A. Bernard,  E. Berquist,  
 K. Brandhorst,  K. B. Bravaya,  S. T. Brown,  D. Casanova,  C.-M. Chang,  
 Y. Chen,  S. H. Chien,  K. D. Closser,  D. L. Crittenden,  M. Diedenhofen,  
 R. A. DiStasio Jr.,  H. Do,  A. D. Dutoi,  R. G. Edgar,  P.-T. Fang,  
 S. Fatehi,  Q. Feng,  L. Fusti-Molnar,  A. Ghysels,  
 A. Golubeva-Zadorozhnaya,  J. Gomes,  A. Gunina,  M. W. D. Hanson-Heine,  
 P. H. P. Harbach,  A. W. Hauser,  E. G. Hohenstein,  Z. C. Holden,  K. Hui,  
 T.-C. Jagau,  H. Ji,  B. Kaduk,  K. Khistyaev,  Jaehoon Kim,  Jihan Kim,  
 R. A. King,  P. Klunzinger,  D. Kosenkov,  T. Kowalczyk,  C. M. Krauter,  
 K. U. Lao,  A. Laurent,  K. V. Lawler,  S. Lehtola,  S. V. Levchenko,  
 C. Y. Lin,  Y.-S. Lin,  F. Liu,  E. Livshits,  R. C. Lochan,  A. Luenser,  
 P. Manohar,  S. F. Manzer,  S.-P. Mao,  N. Mardirossian,  A. V. Marenich,  
 L. A. Martinez-Martinez,  S. A. Maurer,  N. J. Mayhall,  K. Nanda,  
 C. M. Oana,  R. Olivares-Amaya,  D. P. O'Neill,  J. A. Parkhill,  
 T. M. Perrine,  R. Peverati,  P. A. Pieniazek,  F. Plasser,  A. Prociuk,  
 D. R. Rehn,  E. Rosta,  N. J. Russ,  N. Sergueev,  S. M. Sharada,  
 S. Sharma,  D. W. Small,  A. Sodt,  T. Stauch,  T. Stein,  D. Stuck,  
 Y.-C. Su,  A. J. W. Thom,  T. Tsuchimochi,  L. Vogt,  O. Vydrov,  T. Wang,  
 M. A. Watson,  J. Wenzel,  A. White,  C. F. Williams,  V. Vanovschi,  
 S. Yeganeh,  S. R. Yost,  Z.-Q. You,  I. Y. Zhang,  X. Zhang,  Y. Zhao,  
 B. R. Brooks,  G. K. L. Chan,  D. M. Chipman,  C. J. Cramer,  
 W. A. Goddard III,  M. S. Gordon,  W. J. Hehre,  A. Klamt,  
 H. F. Schaefer III,  M. W. Schmidt,  C. D. Sherrill,  D. G. Truhlar,  
 A. Warshel,  X. Xu,  A. Aspuru-Guzik,  R. Baer,  A. T. Bell,  N. A. Besley,  
 J.-D. Chai,  A. Dreuw,  B. D. Dunietz,  T. R. Furlani,  S. R. Gwaltney,  
 C.-P. Hsu,  Y. Jung,  J. Kong,  D. S. Lambrecht,  W. Liang,  C. Ochsenfeld,  
 V. A. Rassolov,  L. V. Slipchenko,  J. E. Subotnik,  T. Van Voorhis,  
 J. M. Herbert,  A. I. Krylov,  P. M. W. Gill,  M. Head-Gordon

 Contributors to earlier versions of Q-Chem not listed above: 
 R. D. Adamson,  J. Baker,  E. F. C. Byrd,  A. K. Chakraborty,  C.-L. Cheng,  
 H. Dachsel,  R. J. Doerksen,  G. Hawkins,  A. Heyden,  S. Hirata,  
 G. Kedziora,  F. J. Keil,  C. Kelley,  P. P. Korambath,  W. Kurlancheek,  
 A. M. Lee,  M. S. Lee,  D. Liotard,  I. Lotan,  P. E. Maslen,  N. Nair,  
 D. Neuhauser,  R. Olson,  B. Peters,  J. Ritchie,  N. E. Schultz,  
 N. Shenvi,  A. C. Simmonett,  K. S. Thanthiriwatte,  Q. Wu,  W. Zhang

 Please cite Q-Chem as follows:
 Y. Shao et al., Mol. Phys. 113, 184-215 (2015)
 DOI: 10.1080/00268976.2014.952696

 Q-Chem 4.3.0 for Intel X86 Linux

 Parts of Q-Chem use Armadillo 5.200.1 (Boston Tea Smuggler).
 http://arma.sourceforge.net/

 Q-Chem begins on Tue Jun  6 16:35:42 2017  

Host: 
0

     Scratch files written to /tmp/ts1010.qcin//
 Oct1215 13750_ 19228  19214 4150   
 Parallel job on  1  processors
Processing $rem in /programs/x86_64/lib/qchem-4.3.2/config/preferences.
 MEM_TOTAL  2000 

Checking the input file for inconsistencies... 	...done.

--------------------------------------------------------------
User input:
--------------------------------------------------------------
$comment
Title
$end

$molecule
-2 1
C         3.498        -1.321          2.640
O         4.603        -1.547          2.091
O         3.149        -1.614          3.838
C         2.409        -0.623          1.832
C         2.027        -2.001          0.324
O         1.280        -0.399          2.450
C         2.530         0.006          0.476
O         1.496         0.656          0.008
C         3.746         0.179         -0.365
H         3.417        -0.086         -1.495
H         4.571        -0.479          0.001
H         4.028         1.298         -0.262
H         1.096        -1.892         -0.319
H         1.822        -2.661          1.218
H         3.008        -2.234         -0.198
$end


$solvent
CavityRadius    30
Dielectric     78.39
$end

$molecule
READ
$end

$rem
jobtype          FREQ
exchange         b3lyp
basis            6-31+G(d)
pdb_print 2
SOLVENT_METHOD ONSAGER
NBO TRUE
$end

--------------------------------------------------------------
 ----------------------------------------------------------------
             Standard Nuclear Orientation (Angstroms)
    I     Atom           X                Y                Z
 ----------------------------------------------------------------
    1      C       1.5036382626     0.3317705742     0.1358514304
    2      O       1.4185183207     1.5765397967     0.0062127859
    3      O       2.5718947260    -0.3708442513     0.2253753681
    4      C       0.2183136631    -0.4869825971     0.1956253252
    5      C      -0.5990621196    -0.1628053711    -1.6873717422
    6      O       0.3575804422    -1.7775977142     0.3427932012
    7      C      -1.1903865665     0.0180963731     0.2929746813
    8      O      -2.1466610853    -0.8606619307     0.4479033369
    9      C      -1.6687518156     1.4198473475     0.4417257958
   10      H      -2.6200414055     1.5328683721    -0.2915138404
   11      H      -0.8527072540     2.1398839610     0.1904022019
   12      H      -1.9822497484     1.5158812132     1.5529370911
   13      H      -1.4485302239    -0.8219623220    -2.0561630841
   14      H       0.4011087315    -0.5836895716    -2.0026109505
   15      H      -0.6907478732     0.9579731841    -1.8441618974
 ----------------------------------------------------------------
 Molecular Point Group                 C1    NOp =  1
 Largest Abelian Subgroup              C1    NOp =  1
 Nuclear Repulsion Energy =   448.6111425838 hartrees
 There are       35 alpha and       35 beta electrons
 Requested basis set is 6-31+G(d)
 There are 57 shells and 183 basis functions

 Total QAlloc Memory Limit   2000 MB
 Mega-Array Size        61 MB
 MEM_STATIC part        62 MB

                       Distance Matrix (Angstroms)
             C (  1)   O (  2)   O (  3)   C (  4)   C (  5)   O (  6)
   O (  2)  1.254393
   O (  3)  1.281739  2.273898
   C (  4)  1.525119  2.394680  2.356633
   C (  5)  2.826676  3.156609  3.709023  2.078190
   O (  6)  2.409504  3.533994  2.626010  1.306423  2.764831
   C (  7)  2.716772  3.052436  3.782936  1.499673  2.074647  2.371329
   O (  8)  3.852786  4.341146  4.749127  2.407568  2.727905  2.668903
   C (  9)  3.367719  3.121772  4.608304  2.693990  2.860434  3.786749
   H ( 10)  4.316250  4.049755  5.554052  3.517579  2.984642  4.497529
   H ( 11)  2.970625  2.347285  4.246514  2.836819  2.982071  4.103009
   H ( 12)  3.944828  3.736477  5.105133  3.270510  3.902665  4.217376
   H ( 13)  3.853742  4.269212  4.644647  2.821548  1.136702  3.151232
   H ( 14)  2.574230  3.120430  3.117938  2.207942  1.129983  2.632153
   H ( 15)  3.021244  2.873241  4.085777  2.659891  1.135400  3.655833
             C (  7)   O (  8)   C (  9)   H ( 10)   H ( 11)   H ( 12)
   O (  8)  1.307930
   C (  9)  1.488579  2.330055
   H ( 10)  2.163348  2.549473  1.206386
   H ( 11)  2.150937  3.277789  1.116936  1.929814
   H ( 12)  2.111377  2.626040  1.158574  1.951683  1.876632
   H ( 13)  2.508144  2.599852  3.363578  3.167278  3.764916  4.333125
   H ( 14)  2.857397  3.545824  3.777997  4.066327  3.714729  4.767653
   H ( 15)  2.387543  3.268131  2.528854  2.542321  2.358515  3.676890
             H ( 13)   H ( 14)
   H ( 14)  1.865692
   H ( 15)  1.946111  1.895780
 
 A cutoff of  1.0D-11 yielded   1548 shell pairs
 There are     16578 function pairs
 
 -------------------------------------------------------
 OpenMP Integral Computing Module                       
 Release: version 1.0, May 2013, Q-Chem Inc. Pittsburgh 
 -------------------------------------------------------
 Integral Job Info:
 Integral job number is                      11
 Integral operator is                         1
 short-range coefficients                     0
 long-range coefficients              100000000
 Omega coefficients                           0
 if combine SR and LR in K                    0
 Integral screening is                        0
 Integral computing path is                   2
 max size of driver memory is            800000
 size of driver memory is                593474
 size of scratch memory is              2260544
 max col of scratch BK array               1296
 max len of scratch array in speh3          155
 max len of scratch index in speh4           18
 max int batch size is                      520
 min int batch size is                       52
 fixed nKL is                                52
 max L of basis functions is                  2
 order of int derivative is                   0
 number of shells is                         57
 number of basis is                         183
 number of cartesian basis is               183
 number of contracted shell pairs          1548
 number of primitive shell pairs           5367
 maxK2 (contraction) of shell pair           36
 max number of K2 of shell pair               1
 max number of CS2 of shell pair            198
 max number of PS2 of shell pair           1188
 mem total for path MDJ                   44296
 -------------------------------------------------------
 Smallest overlap matrix eigenvalue = 1.54E-05
 Placing solute cavity origin at the center of mass
 Center of Onsager solute cavity (Angst): (   0.054801,  -0.036120,   0.033924)
 Solvent multipole matrices computed through 15th order
 Guess from superposition of atomic densities
 Warning:  Energy on first SCF cycle will be non-variational
 A restricted hybrid HF-DFT SCF calculation will be
 performed using Pulay DIIS extrapolation
 Kirkwood-Onsager solvation model will be applied
 Exchange:     0.2000 Hartree-Fock + 0.0800 Slater + 0.7200 B88
 Correlation:  0.1900 VWN1RPA + 0.8100 LYP
 Using SG-1 standard quadrature grid
 SCF converges when DIIS error is below 1.0E-08
 Kirkwood-Onsager SCRF: 
 Maximum multipole order     = 15
 Solvent dielectric constant = 78.3900
 Cavity radius               = 56.6917 bohr
 Born term (E_born)          = -0.03482849 a.u. = -21.8552 kcal/mol
 CPU 0.00 s  wall 0.00 s
 Inaccurate integrated density:
   Number of electrons =    70
   Numerical integral  =    67.998983312642
   Relative error      =    -2.8585952677 %
 CPU 4.82 s  wall 4.82 s
 ---------------------------------------
  Cycle       Energy         DIIS Error
 ---------------------------------------
    1    -496.0023008959      4.69E-02
 CPU 0.00 s  wall 0.00 s
 CPU 5.42 s  wall 5.42 s
    2    -494.5451191797      1.07E-02
 CPU 0.00 s  wall 0.00 s
 CPU 5.42 s  wall 5.42 s
    3    -489.1297401354      3.24E-02
 CPU 0.00 s  wall 0.00 s
 CPU 5.43 s  wall 5.43 s
    4    -494.7070521571      8.05E-03
 CPU 0.00 s  wall 0.00 s
 CPU 5.38 s  wall 5.38 s
    5    -494.9634688648      1.88E-03
 CPU 0.00 s  wall 0.00 s
 CPU 5.37 s  wall 5.37 s
    6    -494.9691438668      1.64E-03
 CPU 0.00 s  wall 0.00 s
 CPU 5.32 s  wall 5.32 s
    7    -494.9773700180      6.12E-04
 CPU 0.00 s  wall 0.00 s
 CPU 5.27 s  wall 5.27 s
    8    -494.9784452119      2.43E-04
 CPU 0.00 s  wall 0.00 s
 CPU 5.28 s  wall 5.27 s
    9    -494.9786532986      5.13E-05
 CPU 0.00 s  wall 0.00 s
 CPU 5.19 s  wall 5.19 s
   10    -494.9786626025      2.81E-05
 CPU 0.00 s  wall 0.00 s
 CPU 5.11 s  wall 5.11 s
   11    -494.9786653581      6.76E-06
 CPU 0.00 s  wall 0.00 s
 CPU 5.07 s  wall 5.07 s
   12    -494.9786654500      4.74E-06
 CPU 0.00 s  wall 0.00 s
 CPU 4.97 s  wall 4.97 s
   13    -494.9786655306      8.97E-07
 CPU 0.00 s  wall 0.00 s
 CPU 4.90 s  wall 4.90 s
   14    -494.9786655340      3.67E-07
 CPU 0.00 s  wall 0.00 s
 CPU 4.79 s  wall 4.79 s
   15    -494.9786655350      8.51E-08
 CPU 0.00 s  wall 0.00 s
 CPU 4.66 s  wall 4.66 s
   16    -494.9786655338      3.39E-08
 CPU 0.00 s  wall 0.00 s
 CPU 4.45 s  wall 4.45 s
   17    -494.9786655335      7.52E-09 Convergence criterion met
 ---------------------------------------
 SCF time:  CPU 204.26 s  wall 203.82 s
 SCF   energy in the final basis set = -494.9786655335
 Total energy in the final basis set = -494.9786655335
 
 --------------------------------------------------------------
 
                    Orbital Energies (a.u.)
 --------------------------------------------------------------
 
 Alpha MOs
 -- Occupied --
-18.795 -18.787 -18.782 -18.775  -9.965  -9.961  -9.945  -9.929
 -9.908  -0.715  -0.673  -0.637  -0.616  -0.456  -0.396  -0.334
 -0.255  -0.175  -0.159  -0.140  -0.131  -0.121  -0.108  -0.098
 -0.080  -0.072  -0.063  -0.045   0.025   0.045   0.058   0.066
  0.086   0.103   0.111
 -- Virtual --
  0.227   0.238   0.266   0.272   0.279   0.290   0.293   0.303
  0.307   0.316   0.328   0.336   0.338   0.340   0.354   0.366
  0.372   0.388   0.401   0.407   0.412   0.431   0.454   0.476
  0.486   0.495   0.503   0.516   0.530   0.533   0.550   0.551
  0.566   0.567   0.572   0.585   0.588   0.596   0.602   0.615
  0.629   0.635   0.644   0.667   0.682   0.688   0.696   0.713
  0.753   0.785   0.821   0.924   0.928   0.952   0.985   0.988
  1.011   1.061   1.079   1.089   1.115   1.140   1.185   1.193
  1.210   1.222   1.249   1.262   1.295   1.334   1.355   1.372
  1.401   1.433   1.434   1.498   1.548   1.565   1.580   1.585
  1.623   1.636   1.655   1.671   1.687   1.692   1.707   1.710
  1.747   1.770   1.782   1.793   1.810   1.853   1.942   1.959
  2.006   2.032   2.053   2.077   2.099   2.137   2.163   2.167
  2.172   2.188   2.221   2.237   2.270   2.288   2.326   2.354
  2.368   2.405   2.427   2.457   2.486   2.495   2.530   2.565
  2.596   2.635   2.651   2.702   2.726   2.778   2.825   2.848
  2.893   2.944   3.039   3.073   3.221   3.341   3.362   3.456
  3.470   3.542   3.598   4.445   4.515   4.564   4.620   4.743
  4.805   4.896   4.983   5.283
 --------------------------------------------------------------
 
          Ground-State Mulliken Net Atomic Charges

     Atom                 Charge (a.u.)
  ----------------------------------------
      1 C                     0.550520
      2 O                    -0.645283
      3 O                    -0.609583
      4 C                    -0.211745
      5 C                    -0.768081
      6 O                    -0.518878
      7 C                     0.327884
      8 O                    -0.555818
      9 C                    -0.723255
     10 H                     0.160146
     11 H                     0.238150
     12 H                     0.159162
     13 H                     0.188651
     14 H                     0.216934
     15 H                     0.191197
  ----------------------------------------
  Sum of atomic charges =    -2.000000

 -----------------------------------------------------------------
                    Cartesian Multipole Moments
 -----------------------------------------------------------------
    Charge (ESU x 10^10)
                -9.6064
    Dipole Moment (Debye)
         X      -2.9052      Y       3.1338      Z       0.0227
       Tot       4.2734
    Quadrupole Moments (Debye-Ang)
        XX    -104.7777     XY      -6.5830     YY     -84.3186
        XZ      -0.2552     YZ       3.8355     ZZ     -68.7646
    Octopole Moments (Debye-Ang^2)
       XXX       2.7673    XXY       1.5988    XYY      -0.4772
       YYY     -11.6558    XXZ      -5.5656    XYZ      -1.2347
       YYZ      -0.3808    XZZ      15.2966    YZZ      -3.6457
       ZZZ      45.0351
    Hexadecapole Moments (Debye-Ang^3)
      XXXX   -1241.6687   XXXY     -10.3799   XXYY    -291.3705
      XYYY       0.4046   YYYY    -566.5734   XXXZ       2.3413
      XXYZ       7.6833   XYYZ       2.2575   YYYZ       2.3857
      XXZZ    -224.8815   XYZZ       3.3272   YYZZ    -140.7650
      XZZZ     -30.4861   YZZZ       2.5120   ZZZZ    -417.4363
 -----------------------------------------------------------------

 Begin NBO analysis for the ground state 


 *********************************** NBO 5.0 ***********************************
             N A T U R A L   A T O M I C   O R B I T A L   A N D
          N A T U R A L   B O N D   O R B I T A L   A N A L Y S I S
 *******************************************************************************
  (c) Copyright 1996-2002 Board of Regents of the University of Wisconsin System
      on behalf of the Theoretical Chemistry Institute.  All Rights Reserved.

          Cite this program as:

          NBO 5.0.  E. D. Glendening, J. K. Badenhoop, A. E. Reed,
          J. E. Carpenter, J. A. Bohmann, C. M. Morales, and F. Weinhold
          (Theoretical Chemistry Institute, University of Wisconsin,
          Madison, WI, 2001); http://www.chem.wisc.edu/~nbo5

       /PRINT  / : Print level set to  1
  This is a closed-shell NBO calculation

 Job title: Starting NBO analysis.                                          

 Storage needed:      168297 in NPA,      134749 in NBO (     7716834 available)


 NATURAL POPULATIONS:  Natural atomic orbital occupancies 
                                                          
  NAO Atom No lang   Type(AO)    Occupancy      Energy    
 ---------------------------------------------------------
   1    C  1  s      Cor( 1s)     1.99931      -9.84465
   2    C  1  s      Val( 2s)     0.78737       0.19152
   3    C  1  s      Ryd( 3s)     0.01265       1.12541
   4    C  1  s      Ryd( 4s)     0.00254       1.42451
   5    C  1  s      Ryd( 5s)     0.00035       3.88597
   6    C  1  px     Val( 2p)     0.87222       0.30668
   7    C  1  px     Ryd( 4p)     0.01242       1.11060
   8    C  1  px     Ryd( 3p)     0.00176       0.66431
   9    C  1  py     Val( 2p)     0.78036       0.33781
  10    C  1  py     Ryd( 4p)     0.01913       1.14799
  11    C  1  py     Ryd( 3p)     0.00074       0.60972
  12    C  1  pz     Val( 2p)     0.78868       0.22390
  13    C  1  pz     Ryd( 4p)     0.00239       0.98097
  14    C  1  pz     Ryd( 3p)     0.00052       0.47329
  15    C  1  dxy    Ryd( 3d)     0.00419       2.91178
  16    C  1  dxz    Ryd( 3d)     0.00129       2.31989
  17    C  1  dyz    Ryd( 3d)     0.00267       2.47202
  18    C  1  dx2y2  Ryd( 3d)     0.00403       2.85163
  19    C  1  dz2    Ryd( 3d)     0.00042       2.67449
 
  20    O  2  s      Cor( 1s)     1.99979     -18.54533
  21    O  2  s      Val( 2s)     1.72042      -0.55743
  22    O  2  s      Ryd( 3s)     0.00242       0.93996
  23    O  2  s      Ryd( 4s)     0.00026       2.39590
  24    O  2  s      Ryd( 5s)     0.00008       4.18466
  25    O  2  px     Val( 2p)     1.88550       0.07274
  26    O  2  px     Ryd( 3p)     0.00460       0.87879
  27    O  2  px     Ryd( 4p)     0.00018       1.50904
  28    O  2  py     Val( 2p)     1.57725       0.03740
  29    O  2  py     Ryd( 3p)     0.00094       0.94265
  30    O  2  py     Ryd( 4p)     0.00023       1.74871
  31    O  2  pz     Val( 2p)     1.60689       0.07485
  32    O  2  pz     Ryd( 3p)     0.00211       0.73646
  33    O  2  pz     Ryd( 4p)     0.00009       1.40151
  34    O  2  dxy    Ryd( 3d)     0.00282       2.49173
  35    O  2  dxz    Ryd( 3d)     0.00007       2.16724
  36    O  2  dyz    Ryd( 3d)     0.00306       2.36885
  37    O  2  dx2y2  Ryd( 3d)     0.00327       2.72634
  38    O  2  dz2    Ryd( 3d)     0.00099       2.39170
 
  39    O  3  s      Cor( 1s)     1.99981     -18.54253
  40    O  3  s      Val( 2s)     1.73838      -0.54481
  41    O  3  s      Ryd( 3s)     0.00187       1.03499
  42    O  3  s      Ryd( 4s)     0.00030       2.36116
  43    O  3  s      Ryd( 5s)     0.00006       4.15948
  44    O  3  px     Val( 2p)     1.64826       0.07049
  45    O  3  px     Ryd( 3p)     0.00170       0.94890
  46    O  3  px     Ryd( 4p)     0.00013       1.56731
  47    O  3  py     Val( 2p)     1.78805       0.08480
  48    O  3  py     Ryd( 3p)     0.00308       0.83293
  49    O  3  py     Ryd( 4p)     0.00015       1.54471
  50    O  3  pz     Val( 2p)     1.59290       0.09332
  51    O  3  pz     Ryd( 3p)     0.00198       0.74821
  52    O  3  pz     Ryd( 4p)     0.00003       1.41407
  53    O  3  dxy    Ryd( 3d)     0.00274       2.70913
  54    O  3  dxz    Ryd( 3d)     0.00197       2.31245
  55    O  3  dyz    Ryd( 3d)     0.00085       2.24594
  56    O  3  dx2y2  Ryd( 3d)     0.00274       2.55163
  57    O  3  dz2    Ryd( 3d)     0.00081       2.42323
 
  58    C  4  s      Cor( 1s)     1.99887      -9.82128
  59    C  4  s      Val( 2s)     0.94195       0.10415
  60    C  4  s      Ryd( 4s)     0.00864       1.80961
  61    C  4  s      Ryd( 5s)     0.00074       2.97942
  62    C  4  s      Ryd( 3s)     0.00016       1.15855
  63    C  4  px     Val( 2p)     1.05260       0.24709
  64    C  4  px     Ryd( 4p)     0.00497       1.34653
  65    C  4  px     Ryd( 3p)     0.00048       0.65784
  66    C  4  py     Val( 2p)     0.85603       0.27610
  67    C  4  py     Ryd( 4p)     0.01765       1.27378
  68    C  4  py     Ryd( 3p)     0.00072       0.66901
  69    C  4  pz     Val( 2p)     0.82516       0.20745
  70    C  4  pz     Ryd( 4p)     0.00207       1.04899
  71    C  4  pz     Ryd( 3p)     0.00136       0.56944
  72    C  4  dxy    Ryd( 3d)     0.00343       2.71075
  73    C  4  dxz    Ryd( 3d)     0.00084       2.23036
  74    C  4  dyz    Ryd( 3d)     0.00192       2.36110
  75    C  4  dx2y2  Ryd( 3d)     0.00150       2.82262
  76    C  4  dz2    Ryd( 3d)     0.00080       2.62633
 
  77    C  5  s      Cor( 1s)     1.99953      -9.80569
  78    C  5  s      Val( 2s)     1.25373      -0.05458
  79    C  5  s      Ryd( 3s)     0.01737       0.70576
  80    C  5  s      Ryd( 4s)     0.00059       1.56108
  81    C  5  s      Ryd( 5s)     0.00002       4.14151
  82    C  5  px     Val( 2p)     1.22561       0.19705
  83    C  5  px     Ryd( 3p)     0.00307       0.59281
  84    C  5  px     Ryd( 4p)     0.00044       0.84574
  85    C  5  py     Val( 2p)     1.21176       0.20030
  86    C  5  py     Ryd( 3p)     0.00364       0.57576
  87    C  5  py     Ryd( 4p)     0.00048       0.83837
  88    C  5  pz     Val( 2p)     1.08717       0.17255
  89    C  5  pz     Ryd( 3p)     0.01798       0.63276
  90    C  5  pz     Ryd( 4p)     0.00092       0.85873
  91    C  5  dxy    Ryd( 3d)     0.00096       2.37214
  92    C  5  dxz    Ryd( 3d)     0.00075       2.34423
  93    C  5  dyz    Ryd( 3d)     0.00054       2.14061
  94    C  5  dx2y2  Ryd( 3d)     0.00132       2.38696
  95    C  5  dz2    Ryd( 3d)     0.00073       2.34133
 
  96    O  6  s      Cor( 1s)     1.99981     -18.52710
  97    O  6  s      Val( 2s)     1.72714      -0.53926
  98    O  6  s      Ryd( 3s)     0.00143       1.51345
  99    O  6  s      Ryd( 4s)     0.00019       2.29831
 100    O  6  s      Ryd( 5s)     0.00005       3.89075
 101    O  6  px     Val( 2p)     1.88866       0.10317
 102    O  6  px     Ryd( 3p)     0.00310       1.03967
 103    O  6  px     Ryd( 4p)     0.00016       1.41124
 104    O  6  py     Val( 2p)     1.52740       0.07268
 105    O  6  py     Ryd( 3p)     0.00058       1.20786
 106    O  6  py     Ryd( 4p)     0.00018       1.36296
 107    O  6  pz     Val( 2p)     1.57146       0.10461
 108    O  6  pz     Ryd( 3p)     0.00264       0.95329
 109    O  6  pz     Ryd( 4p)     0.00013       1.31204
 110    O  6  dxy    Ryd( 3d)     0.00226       2.53956
 111    O  6  dxz    Ryd( 3d)     0.00009       2.20431
 112    O  6  dyz    Ryd( 3d)     0.00239       2.38713
 113    O  6  dx2y2  Ryd( 3d)     0.00259       2.74542
 114    O  6  dz2    Ryd( 3d)     0.00087       2.42805
 
 115    C  7  s      Cor( 1s)     1.99907      -9.83094
 116    C  7  s      Val( 2s)     0.88708       0.10739
 117    C  7  s      Ryd( 3s)     0.00596       1.50698
 118    C  7  s      Ryd( 4s)     0.00149       1.59496
 119    C  7  s      Ryd( 5s)     0.00007       4.32824
 120    C  7  px     Val( 2p)     0.96681       0.24953
 121    C  7  px     Ryd( 4p)     0.01194       1.08065
 122    C  7  px     Ryd( 3p)     0.00219       0.74181
 123    C  7  py     Val( 2p)     0.93238       0.23978
 124    C  7  py     Ryd( 4p)     0.01278       1.21285
 125    C  7  py     Ryd( 3p)     0.00123       0.67593
 126    C  7  pz     Val( 2p)     0.81822       0.19816
 127    C  7  pz     Ryd( 4p)     0.00373       0.99297
 128    C  7  pz     Ryd( 3p)     0.00158       0.55592
 129    C  7  dxy    Ryd( 3d)     0.00146       2.76835
 130    C  7  dxz    Ryd( 3d)     0.00180       2.29951
 131    C  7  dyz    Ryd( 3d)     0.00086       2.28932
 132    C  7  dx2y2  Ryd( 3d)     0.00342       2.68893
 133    C  7  dz2    Ryd( 3d)     0.00105       2.57857
 
 134    O  8  s      Cor( 1s)     1.99981     -18.53388
 135    O  8  s      Val( 2s)     1.72582      -0.55687
 136    O  8  s      Ryd( 3s)     0.00087       1.62618
 137    O  8  s      Ryd( 4s)     0.00024       2.42664
 138    O  8  s      Ryd( 5s)     0.00005       3.53437
 139    O  8  px     Val( 2p)     1.68492       0.06913
 140    O  8  px     Ryd( 3p)     0.00239       0.94983
 141    O  8  px     Ryd( 4p)     0.00023       1.50032
 142    O  8  py     Val( 2p)     1.74057       0.07290
 143    O  8  py     Ryd( 3p)     0.00261       0.93603
 144    O  8  py     Ryd( 4p)     0.00027       1.43487
 145    O  8  pz     Val( 2p)     1.63055       0.08725
 146    O  8  pz     Ryd( 3p)     0.00282       0.83731
 147    O  8  pz     Ryd( 4p)     0.00023       1.37854
 148    O  8  dxy    Ryd( 3d)     0.00252       2.71308
 149    O  8  dxz    Ryd( 3d)     0.00114       2.29525
 150    O  8  dyz    Ryd( 3d)     0.00136       2.27313
 151    O  8  dx2y2  Ryd( 3d)     0.00222       2.49600
 152    O  8  dz2    Ryd( 3d)     0.00085       2.40549
 
 153    C  9  s      Cor( 1s)     1.99921      -9.79602
 154    C  9  s      Val( 2s)     1.13800      -0.01832
 155    C  9  s      Ryd( 3s)     0.00241       0.93091
 156    C  9  s      Ryd( 4s)     0.00058       1.77220
 157    C  9  s      Ryd( 5s)     0.00001       3.87659
 158    C  9  px     Val( 2p)     1.21715       0.16889
 159    C  9  px     Ryd( 3p)     0.00342       0.68484
 160    C  9  px     Ryd( 4p)     0.00048       0.70525
 161    C  9  py     Val( 2p)     1.14487       0.17506
 162    C  9  py     Ryd( 3p)     0.00206       0.60491
 163    C  9  py     Ryd( 4p)     0.00098       0.67749
 164    C  9  pz     Val( 2p)     1.21199       0.16334
 165    C  9  pz     Ryd( 4p)     0.00157       0.73148
 166    C  9  pz     Ryd( 3p)     0.00079       0.66959
 167    C  9  dxy    Ryd( 3d)     0.00136       2.42864
 168    C  9  dxz    Ryd( 3d)     0.00108       2.27220
 169    C  9  dyz    Ryd( 3d)     0.00032       2.13842
 170    C  9  dx2y2  Ryd( 3d)     0.00071       2.36907
 171    C  9  dz2    Ryd( 3d)     0.00138       2.38252
 
 172    H 10  s      Val( 1s)     0.79590       0.25261
 173    H 10  s      Ryd( 2s)     0.00306       1.07692
 
 174    H 11  s      Val( 1s)     0.73856       0.36235
 175    H 11  s      Ryd( 2s)     0.00185       1.10017
 
 176    H 12  s      Val( 1s)     0.77439       0.28615
 177    H 12  s      Ryd( 2s)     0.00129       1.03960
 
 178    H 13  s      Val( 1s)     0.77724       0.33554
 179    H 13  s      Ryd( 2s)     0.00196       1.05664
 
 180    H 14  s      Val( 1s)     0.76020       0.34733
 181    H 14  s      Ryd( 2s)     0.00197       1.09532
 
 182    H 15  s      Val( 1s)     0.79343       0.32424
 183    H 15  s      Ryd( 2s)     0.00179       1.11293
 
   1 low occupancy (<1.9990e) core orbital  found on  C  4
 
     Population inversion found on atom  C  1
     Population inversion found on atom  C  4
     Population inversion found on atom  C  7
     Population inversion found on atom  C  9


 Summary of Natural Population Analysis:

                                     Natural Population
             Natural    ---------------------------------------------
  Atom No    Charge        Core      Valence    Rydberg      Total
 --------------------------------------------------------------------
    C  1    0.70696      1.99931     3.22864    0.06510     5.29304
    O  2   -0.81094      1.99979     6.79006    0.02110     8.81094
    O  3   -0.78580      1.99981     6.76758    0.01841     8.78580
    C  4    0.28012      1.99887     3.67574    0.04527     5.71988
    C  5   -0.82660      1.99953     4.77827    0.04880     6.82660
    O  6   -0.73113      1.99981     6.71465    0.01666     8.73113
    C  7    0.34687      1.99907     3.60449    0.04957     5.65313
    O  8   -0.79948      1.99981     6.78186    0.01780     8.79948
    C  9   -0.72836      1.99921     4.71201    0.01714     6.72836
    H 10    0.20105      0.00000     0.79590    0.00306     0.79895
    H 11    0.25959      0.00000     0.73856    0.00185     0.74041
    H 12    0.22432      0.00000     0.77439    0.00129     0.77568
    H 13    0.22081      0.00000     0.77724    0.00196     0.77919
    H 14    0.23783      0.00000     0.76020    0.00197     0.76217
    H 15    0.20478      0.00000     0.79343    0.00179     0.79522
 ====================================================================
 * Total * -2.00000     17.99521    51.69302    0.31177    70.00000

                                 Natural Population      
 --------------------------------------------------------
   Core                      17.99521 ( 99.9734% of  18)
   Valence                   51.69302 ( 99.4096% of  52)
   Natural Minimal Basis     69.68823 ( 99.5546% of  70)
   Natural Rydberg Basis      0.31177 (  0.4454% of  70)
 --------------------------------------------------------

    Atom No         Natural Electron Configuration
 ----------------------------------------------------------------------------
      C  1      [core]2s( 0.79)2p( 2.44)3s( 0.01)3d( 0.01)4p( 0.03)
      O  2      [core]2s( 1.72)2p( 5.07)3p( 0.01)3d( 0.01)
      O  3      [core]2s( 1.74)2p( 5.03)3p( 0.01)3d( 0.01)
      C  4      [core]2s( 0.94)2p( 2.73)4s( 0.01)3d( 0.01)4p( 0.02)
      C  5      [core]2s( 1.25)2p( 3.52)3s( 0.02)3p( 0.02)
      O  6      [core]2s( 1.73)2p( 4.99)3p( 0.01)3d( 0.01)
      C  7      [core]2s( 0.89)2p( 2.72)3s( 0.01)3d( 0.01)4p( 0.03)
      O  8      [core]2s( 1.73)2p( 5.06)3p( 0.01)3d( 0.01)
      C  9      [core]2s( 1.14)2p( 3.57)3p( 0.01)
      H 10            1s( 0.80)
      H 11            1s( 0.74)
      H 12            1s( 0.77)
      H 13            1s( 0.78)
      H 14            1s( 0.76)
      H 15            1s( 0.79)


 NATURAL BOND ORBITAL ANALYSIS:

                       Occupancies       Lewis Structure    Low   High
           Occ.    -------------------  -----------------   occ   occ
  Cycle   Thresh.   Lewis   Non-Lewis     CR  BD  3C  LP    (L)   (NL)   Dev
 =============================================================================
   1(1)    1.90    67.72709   2.27291      9  17   0   9     4      6    0.45
   2(2)    1.90    67.66402   2.33598      9  17   0   9     5      6    0.47
   3(3)    1.90    67.52004   2.47996      9  18   0   8     4      5    0.40
   4(4)    1.90    67.52004   2.47996      9  18   0   8     4      5    0.40
   5(5)    1.90    65.80034   4.19966      9  19   0   7     6      6    0.47
   6(6)    1.90    67.52004   2.47996      9  18   0   8     4      5    0.40
   7(7)    1.90    67.52004   2.47996      9  18   0   8     4      5    0.40
   8(8)    1.90    65.80034   4.19966      9  19   0   7     6      6    0.47
   9(9)    1.90    67.52004   2.47996      9  18   0   8     4      5    0.40
  10(1)    1.80    68.03063   1.96937      9  16   0  10     2      4    0.45
  11(2)    1.80    68.01229   1.98771      9  16   0  10     2      4    0.47
  12(3)    1.80    68.03063   1.96937      9  16   0  10     2      4    0.45
  13(1)    1.70    68.03063   1.96937      9  16   0  10     2      4    0.45
  14(2)    1.70    68.01229   1.98771      9  16   0  10     2      4    0.47
  15(3)    1.70    68.03063   1.96937      9  16   0  10     2      4    0.45
  16(1)    1.60    68.15576   1.84424      9  16   0  10     0      4    0.45
  17(2)    1.60    68.15576   1.84424      9  16   0  10     0      4    0.45
  18(1)    1.50    67.31276   2.68724      9  14   0  12     0      4    0.48
  19(2)    1.50    67.31276   2.68724      9  14   0  12     0      4    0.48
  20(1)    1.60    68.15576   1.84424      9  16   0  10     0      4    0.45
 -----------------------------------------------------------------------------

 Strongly delocalized structure accepted

           1 low occupancy (<1.9990e) core orbital  found on  C 4

 --------------------------------------------------------
   Core                     17.99519 ( 99.973% of  18)
   Valence Lewis            50.16056 ( 96.463% of  52)
  ==================       ============================
   Total Lewis              68.15576 ( 97.365% of  70)
  -----------------------------------------------------
   Valence non-Lewis         1.63149 (  2.331% of  70)
   Rydberg non-Lewis         0.21275 (  0.304% of  70)
  ==================       ============================
   Total non-Lewis           1.84424 (  2.635% of  70)
 --------------------------------------------------------


     (Occupancy)   Bond orbital/ Coefficients/ Hybrids
 -------------------------------------------------------------------------------
   1. (1.99598) BD ( 1) C  1- O  2       
               ( 34.53%)   0.5877* C  1 s( 33.46%)p 1.98( 66.38%)d 0.01(  0.17%)
                                        -0.0002  0.5765 -0.0465  0.0029  0.0051
                                        -0.0086  0.0219 -0.0043  0.8084  0.0558
                                        -0.0002 -0.0809 -0.0034 -0.0008 -0.0056
                                         0.0002 -0.0063 -0.0378 -0.0136
               ( 65.47%)   0.8091* O  2 s( 39.20%)p 1.54( 60.54%)d 0.01(  0.26%)
                                         0.0000  0.6259 -0.0121 -0.0058 -0.0044
                                         0.0510 -0.0092  0.0031 -0.7716  0.0207
                                         0.0009  0.0830 -0.0032  0.0002 -0.0051
                                         0.0003 -0.0090 -0.0446 -0.0228
   2. (1.99470) BD ( 1) C  1- O  3       
               ( 35.24%)   0.5936* C  1 s( 33.31%)p 2.00( 66.54%)d 0.00(  0.16%)
                                        -0.0001  0.5758 -0.0385 -0.0021  0.0040
                                         0.7019  0.0560 -0.0039 -0.4102 -0.0019
                                        -0.0017 -0.0352  0.0064 -0.0018 -0.0342
                                         0.0000  0.0015  0.0137 -0.0138
               ( 64.76%)   0.8047* O  3 s( 35.80%)p 1.79( 63.97%)d 0.01(  0.23%)
                                         0.0000  0.5982 -0.0128 -0.0047 -0.0042
                                        -0.6640  0.0133  0.0001  0.4216 -0.0186
                                        -0.0033 -0.1431  0.0019  0.0003 -0.0390
                                         0.0080 -0.0048  0.0167 -0.0207
   3. (1.98207) BD ( 2) C  1- O  3       
               ( 24.66%)   0.4965* C  1 s(  0.27%)p99.99( 99.44%)d 1.08(  0.29%)
                                         0.0000  0.0516 -0.0068  0.0000 -0.0002
                                         0.0441  0.0038  0.0023  0.0627 -0.0052
                                         0.0014  0.9927 -0.0495  0.0229  0.0019
                                         0.0412 -0.0342  0.0038  0.0061
               ( 75.34%)   0.8680* O  3 s(  0.27%)p99.99( 99.55%)d 0.68(  0.18%)
                                         0.0000  0.0515 -0.0015 -0.0006 -0.0002
                                        -0.0799  0.0011 -0.0004  0.1354 -0.0013
                                         0.0002  0.9853 -0.0034  0.0016 -0.0075
                                        -0.0345  0.0226 -0.0001 -0.0071
   4. (1.98182) BD ( 1) C  1- C  4       
               ( 46.23%)   0.6799* C  1 s( 33.27%)p 2.00( 66.64%)d 0.00(  0.09%)
                                        -0.0002 -0.5739 -0.0574  0.0051  0.0033
                                         0.7052 -0.0063 -0.0209  0.4095  0.0051
                                        -0.0109 -0.0278 -0.0026 -0.0007 -0.0245
                                         0.0020 -0.0009 -0.0153  0.0070
               ( 53.77%)   0.7333* C  4 s( 35.45%)p 1.82( 64.48%)d 0.00(  0.07%)
                                         0.0003 -0.5951  0.0178  0.0000  0.0020
                                        -0.6626  0.0070 -0.0017 -0.4500  0.0146
                                         0.0013  0.0546 -0.0049 -0.0011 -0.0224
                                         0.0032 -0.0002 -0.0070  0.0103
   5. (1.98998) BD ( 1) C  4- O  6       
               ( 36.55%)   0.6045* C  4 s( 29.06%)p 2.44( 70.82%)d 0.00(  0.13%)
                                         0.0003 -0.5349 -0.0662  0.0050 -0.0043
                                        -0.0902 -0.0230  0.0003  0.8276  0.0689
                                        -0.0021 -0.0977 -0.0181  0.0003  0.0053
                                        -0.0009  0.0064  0.0301  0.0167
               ( 63.45%)   0.7966* O  6 s( 35.83%)p 1.78( 63.93%)d 0.01(  0.23%)
                                        -0.0001 -0.5983  0.0185 -0.0038  0.0010
                                         0.0949 -0.0008  0.0005 -0.7899  0.0125
                                         0.0059  0.0785 -0.0010 -0.0003  0.0093
                                        -0.0016  0.0092  0.0410  0.0215
   6. (1.97462) BD ( 2) C  4- O  6       
               ( 25.73%)   0.5072* C  4 s(  0.95%)p99.99( 98.78%)d 0.27(  0.26%)
                                         0.0001 -0.0957  0.0164  0.0102  0.0020
                                         0.1223 -0.0090 -0.0018  0.0672  0.0037
                                        -0.0011  0.9827 -0.0405  0.0302 -0.0040
                                         0.0076 -0.0487  0.0050  0.0118
               ( 74.27%)   0.8618* O  6 s(  0.03%)p99.99( 99.81%)d 4.80(  0.16%)
                                         0.0000  0.0181  0.0005 -0.0019 -0.0003
                                         0.1081 -0.0033 -0.0006  0.0977  0.0020
                                         0.0007  0.9883 -0.0068  0.0030  0.0037
                                        -0.0044  0.0384 -0.0048 -0.0072
   7. (1.97241) BD ( 1) C  4- C  7       
               ( 48.85%)   0.6990* C  4 s( 34.63%)p 1.89( 65.29%)d 0.00(  0.07%)
                                         0.0000  0.5883 -0.0142  0.0048 -0.0019
                                        -0.7325  0.0013  0.0074  0.3154 -0.0105
                                        -0.0026  0.1281  0.0166  0.0024 -0.0169
                                        -0.0038  0.0074  0.0157 -0.0121
               ( 51.15%)   0.7152* C  7 s( 33.98%)p 1.94( 65.95%)d 0.00(  0.07%)
                                         0.0000  0.5825 -0.0234  0.0015 -0.0026
                                         0.7720 -0.0138 -0.0137 -0.2366  0.0001
                                         0.0087  0.0830  0.0138  0.0089 -0.0112
                                        -0.0008  0.0021  0.0206 -0.0110
   8. (1.63183) BD ( 1) C  5- C  7       
               ( 63.66%)   0.7979* C  5 s( 20.12%)p 3.97( 79.87%)d 0.00(  0.01%)
                                         0.0014  0.4425 -0.0729  0.0031  0.0021
                                        -0.0949 -0.0235  0.0033 -0.0191 -0.0061
                                        -0.0130  0.8844 -0.0794 -0.0081 -0.0011
                                         0.0018  0.0038  0.0004  0.0107
               ( 36.34%)   0.6028* C  7 s(  2.48%)p39.24( 97.42%)d 0.04(  0.10%)
                                         0.0002  0.1557  0.0058 -0.0231  0.0008
                                        -0.0190 -0.0152 -0.0093 -0.0231  0.0029
                                        -0.0113 -0.9858  0.0187  0.0239 -0.0024
                                        -0.0223  0.0034 -0.0015  0.0225
   9. (1.98588) BD ( 1) C  5- H 13       
               ( 61.03%)   0.7812* C  5 s( 26.04%)p 2.84( 73.87%)d 0.00(  0.09%)
                                        -0.0001  0.5095  0.0276 -0.0044 -0.0004
                                        -0.6432 -0.0174  0.0003 -0.4626 -0.0218
                                        -0.0010 -0.3318  0.0060 -0.0085  0.0213
                                         0.0148  0.0127  0.0056 -0.0093
               ( 38.97%)   0.6242* H 13 s(100.00%)
                                         1.0000  0.0044
  10. (1.97844) BD ( 1) C  5- H 14       
               ( 61.97%)   0.7872* C  5 s( 30.07%)p 2.32( 69.83%)d 0.00(  0.10%)
                                         0.0001  0.5482  0.0136 -0.0018  0.0003
                                         0.7532  0.0244 -0.0055 -0.3007 -0.0149
                                        -0.0015 -0.1989 -0.0060 -0.0113 -0.0171
                                        -0.0144  0.0063  0.0181 -0.0102
               ( 38.03%)   0.6167* H 14 s(100.00%)
                                         1.0000  0.0037
  11. (1.98640) BD ( 1) C  5- H 15       
               ( 60.23%)   0.7761* C  5 s( 24.39%)p 3.10( 75.51%)d 0.00(  0.11%)
                                        -0.0001  0.4921  0.0410  0.0028 -0.0013
                                        -0.0877  0.0070  0.0009  0.8314  0.0389
                                         0.0026 -0.2331  0.0078 -0.0149 -0.0041
                                         0.0002 -0.0107 -0.0267 -0.0146
               ( 39.77%)   0.6307* H 15 s(100.00%)
                                         1.0000  0.0033
  12. (1.99337) BD ( 1) C  7- O  8       
               ( 36.49%)   0.6041* C  7 s( 28.59%)p 2.49( 71.27%)d 0.00(  0.13%)
                                        -0.0001  0.5330  0.0434  0.0039  0.0020
                                        -0.5935 -0.0404 -0.0089 -0.5870 -0.0423
                                        -0.0097  0.1102  0.0135  0.0048  0.0313
                                        -0.0050 -0.0041  0.0031 -0.0177
               ( 63.51%)   0.7969* O  8 s( 35.78%)p 1.79( 63.99%)d 0.01(  0.23%)
                                         0.0000  0.5980 -0.0116  0.0073 -0.0025
                                         0.5969 -0.0175 -0.0067  0.5241 -0.0204
                                        -0.0076 -0.0902  0.0019  0.0013  0.0413
                                        -0.0076 -0.0066  0.0036 -0.0215
  13. (1.99140) BD ( 1) C  7- C  9       
               ( 49.34%)   0.7024* C  7 s( 34.93%)p 1.86( 65.01%)d 0.00(  0.07%)
                                        -0.0002  0.5910 -0.0014 -0.0017  0.0016
                                        -0.2180 -0.0086  0.0022  0.7720  0.0034
                                        -0.0007  0.0797  0.0104 -0.0001 -0.0136
                                         0.0006  0.0028 -0.0190 -0.0120
               ( 50.66%)   0.7118* C  9 s( 28.38%)p 2.52( 71.54%)d 0.00(  0.08%)
                                         0.0002  0.5327 -0.0086  0.0034 -0.0001
                                         0.2972 -0.0022  0.0004 -0.7848 -0.0172
                                         0.0029 -0.1043  0.0028  0.0025 -0.0169
                                        -0.0016  0.0044 -0.0183 -0.0121
  14. (1.98390) BD ( 1) C  9- H 10       
               ( 60.46%)   0.7776* C  9 s( 22.31%)p 3.48( 77.60%)d 0.00(  0.08%)
                                         0.0001 -0.4723 -0.0105 -0.0024 -0.0004
                                         0.7035 -0.0076  0.0007 -0.1221 -0.0052
                                        -0.0089  0.5156 -0.0099 -0.0023  0.0023
                                        -0.0245  0.0001 -0.0138 -0.0018
               ( 39.54%)   0.6288* H 10 s(100.00%)
                                        -1.0000 -0.0066
  15. (1.98729) BD ( 1) C  9- H 11       
               ( 63.52%)   0.7970* C  9 s( 26.20%)p 2.81( 73.71%)d 0.00(  0.09%)
                                        -0.0002  0.5118  0.0036 -0.0035 -0.0006
                                         0.5880  0.0000 -0.0027  0.5951  0.0054
                                         0.0046 -0.1927  0.0051  0.0019  0.0241
                                        -0.0096 -0.0068  0.0049 -0.0134
               ( 36.48%)   0.6040* H 11 s(100.00%)
                                         1.0000  0.0056
  16. (1.97495) BD ( 1) C  9- H 12       
               ( 61.07%)   0.7815* C  9 s( 23.10%)p 3.32( 76.80%)d 0.00(  0.09%)
                                        -0.0002  0.4806  0.0011 -0.0040  0.0004
                                        -0.2640  0.0000 -0.0023  0.1158  0.0049
                                         0.0095  0.8275 -0.0037  0.0001 -0.0013
                                        -0.0124  0.0006 -0.0001  0.0277
               ( 38.93%)   0.6240* H 12 s(100.00%)
                                         1.0000  0.0021
  17. (1.99931) CR ( 1) C  1             s(100.00%)p 0.00(  0.00%)
                                         1.0000  0.0001  0.0000  0.0000  0.0000
                                         0.0002  0.0000  0.0000  0.0002  0.0000
                                         0.0000  0.0000  0.0000  0.0000  0.0000
                                         0.0000  0.0000  0.0000  0.0000
  18. (1.99978) CR ( 1) O  2             s(100.00%)p 0.00(  0.00%)
                                         1.0000  0.0003  0.0000  0.0000  0.0000
                                         0.0000  0.0000  0.0000  0.0003  0.0000
                                         0.0000  0.0000  0.0000  0.0000  0.0000
                                         0.0000  0.0000  0.0000  0.0000
  19. (1.99981) CR ( 1) O  3             s(100.00%)p 0.00(  0.00%)
                                         1.0000  0.0003  0.0000  0.0000  0.0000
                                         0.0002  0.0000  0.0000 -0.0002  0.0000
                                         0.0000  0.0000  0.0000  0.0000  0.0000
                                         0.0000  0.0000  0.0000  0.0000
  20. (1.99887) CR ( 1) C  4             s(100.00%)p 0.00(  0.00%)
                                         1.0000  0.0004  0.0000  0.0000  0.0000
                                         0.0002  0.0000  0.0000 -0.0001  0.0000
                                         0.0000  0.0000  0.0000  0.0000  0.0000
                                         0.0000  0.0000  0.0000  0.0000
  21. (1.99950) CR ( 1) C  5             s(100.00%)p 0.00(  0.00%)
                                         1.0000 -0.0005  0.0001  0.0000  0.0000
                                         0.0000  0.0000  0.0000  0.0001  0.0000
                                         0.0000 -0.0013  0.0001  0.0000  0.0000
                                         0.0000  0.0000  0.0000  0.0000
  22. (1.99981) CR ( 1) O  6             s(100.00%)p 0.00(  0.00%)
                                         1.0000  0.0003  0.0000  0.0000  0.0000
                                         0.0000  0.0000  0.0000 -0.0003  0.0000
                                         0.0000  0.0000  0.0000  0.0000  0.0000
                                         0.0000  0.0000  0.0000  0.0000
  23. (1.99907) CR ( 1) C  7             s(100.00%)p 0.00(  0.00%)
                                         1.0000  0.0001  0.0000  0.0000  0.0000
                                        -0.0001  0.0000  0.0000  0.0001  0.0000
                                         0.0000  0.0002  0.0000  0.0000  0.0000
                                         0.0000  0.0000  0.0000  0.0000
  24. (1.99981) CR ( 1) O  8             s(100.00%)p 0.00(  0.00%)
                                         1.0000  0.0003  0.0000  0.0000  0.0000
                                        -0.0003  0.0000  0.0000 -0.0001  0.0000
                                         0.0000  0.0000  0.0000  0.0000  0.0000
                                         0.0000  0.0000  0.0000  0.0000
  25. (1.99921) CR ( 1) C  9             s(100.00%)p 0.00(  0.00%)
                                         1.0000  0.0001  0.0000  0.0000  0.0000
                                        -0.0001  0.0000  0.0000  0.0003  0.0000
                                         0.0000  0.0001  0.0000  0.0000  0.0000
                                         0.0000  0.0000  0.0000  0.0000
  26. (1.97640) LP ( 1) O  2             s( 60.32%)p 0.66( 39.64%)d 0.00(  0.03%)
                                        -0.0004  0.7766  0.0083  0.0023  0.0025
                                         0.0462  0.0061 -0.0037  0.6246 -0.0050
                                        -0.0044 -0.0637  0.0016  0.0001 -0.0020
                                         0.0002  0.0034  0.0155  0.0095
  27. (1.89010) LP ( 2) O  2             s(  0.47%)p99.99( 99.38%)d 0.31(  0.14%)
                                        -0.0001  0.0681 -0.0075  0.0024 -0.0017
                                        -0.9966 -0.0124 -0.0041 -0.0127 -0.0030
                                         0.0021 -0.0197 -0.0012  0.0004  0.0377
                                        -0.0040  0.0005 -0.0015 -0.0008
  28. (1.61035) LP ( 3) O  2             s(  0.00%)p 1.00( 99.81%)d 0.00(  0.19%)
                                         0.0000 -0.0013  0.0021 -0.0005  0.0004
                                        -0.0210 -0.0010  0.0012  0.1044 -0.0013
                                         0.0010  0.9934  0.0024 -0.0005  0.0007
                                        -0.0008 -0.0424  0.0043  0.0080
  29. (1.98071) LP ( 1) O  3             s( 63.92%)p 0.56( 36.06%)d 0.00(  0.02%)
                                        -0.0004  0.7995  0.0066  0.0016  0.0021
                                         0.5024 -0.0009  0.0031 -0.3258  0.0089
                                         0.0005  0.0437 -0.0005 -0.0001  0.0115
                                        -0.0016  0.0015 -0.0037  0.0088
  30. (1.89424) LP ( 2) O  3             s(  0.02%)p99.99( 99.84%)d 6.86(  0.14%)
                                         0.0000  0.0009  0.0141 -0.0004 -0.0002
                                         0.5454  0.0063 -0.0007  0.8342  0.0083
                                        -0.0012 -0.0704  0.0003  0.0002 -0.0133
                                         0.0005 -0.0038 -0.0345 -0.0010
  31. (1.98285) LP ( 1) O  6             s( 64.03%)p 0.56( 35.95%)d 0.00(  0.02%)
                                        -0.0004  0.8001  0.0084 -0.0016  0.0005
                                         0.0273 -0.0006  0.0007 -0.5975  0.0039
                                        -0.0013  0.0414 -0.0008  0.0006  0.0012
                                         0.0003  0.0023  0.0112  0.0096
  32. (1.90085) LP ( 2) O  6             s(  0.11%)p99.99( 99.77%)d 1.06(  0.12%)
                                         0.0000  0.0335  0.0009  0.0001  0.0005
                                         0.9886  0.0058 -0.0004  0.0818  0.0008
                                         0.0005 -0.1169 -0.0027 -0.0009  0.0331
                                        -0.0044 -0.0041 -0.0075  0.0012
  33. (1.97890) LP ( 1) O  8             s( 64.04%)p 0.56( 35.94%)d 0.00(  0.02%)
                                        -0.0004  0.8002  0.0048 -0.0037  0.0013
                                        -0.4198  0.0035 -0.0001 -0.4260  0.0108
                                         0.0001  0.0405 -0.0012  0.0001 -0.0117
                                         0.0016  0.0016  0.0012  0.0088
  34. (1.90613) LP ( 2) O  8             s(  0.13%)p99.99( 99.75%)d 0.86(  0.12%)
                                        -0.0001  0.0354  0.0085  0.0037 -0.0005
                                        -0.6742 -0.0101 -0.0020  0.7353  0.0098
                                         0.0005  0.0451  0.0014 -0.0004  0.0002
                                         0.0043 -0.0020 -0.0335 -0.0028
  35. (1.63499) LP ( 3) O  8             s(  0.04%)p99.99( 99.81%)d 3.53(  0.15%)
                                         0.0000  0.0202  0.0002 -0.0019  0.0004
                                         0.1022  0.0040  0.0009  0.0318  0.0010
                                         0.0004  0.9933  0.0071  0.0042  0.0042
                                         0.0248  0.0280  0.0018 -0.0063
  36. (0.02198) RY*( 1) C  1             s( 18.80%)p 3.92( 73.63%)d 0.40(  7.57%)
                                         0.0000  0.0330  0.4294  0.0424  0.0257
                                         0.0408 -0.0167  0.1551  0.0721 -0.8339
                                         0.0204 -0.0040  0.0964  0.0008  0.1544
                                        -0.0212  0.0415  0.2227  0.0095
  37. (0.01833) RY*( 2) C  1             s( 23.89%)p 2.78( 66.44%)d 0.41(  9.68%)
                                         0.0000  0.0343  0.4610  0.1517  0.0469
                                         0.0702 -0.7028  0.0965  0.0036  0.3642
                                         0.1407  0.0011 -0.0579 -0.0176  0.2892
                                        -0.0369  0.0252  0.1044  0.0152
  38. (0.00603) RY*( 3) C  1             s(  1.23%)p 6.83(  8.37%)d73.79( 90.41%)
                                         0.0000 -0.0040  0.0987  0.0491  0.0093
                                        -0.0007  0.0840 -0.1019  0.0069  0.0593
                                         0.0042  0.0621  0.1532 -0.1879 -0.0969
                                        -0.5137  0.7746 -0.0872 -0.1525
  39. (0.00524) RY*( 4) C  1             s( 37.39%)p 0.93( 34.71%)d 0.75( 27.89%)
                                         0.0000 -0.0216 -0.1638  0.5835 -0.0785
                                         0.0001  0.4104  0.3311  0.0014  0.1540
                                         0.2096 -0.0025 -0.0379 -0.0098  0.4429
                                        -0.0401  0.0522  0.2659  0.0881
  40. (0.00302) RY*( 5) C  1             s(  4.76%)p 1.37(  6.50%)d18.63( 88.73%)
                                         0.0000 -0.0096  0.2158 -0.0122 -0.0282
                                        -0.0127  0.1316 -0.0502  0.0330  0.1998
                                         0.0578 -0.0049 -0.0258 -0.0016 -0.5449
                                         0.0712  0.0055  0.7650 -0.0080
  41. (0.00188) RY*( 6) C  1             s( 39.67%)p 1.02( 40.55%)d 0.50( 19.78%)
                                         0.0000 -0.0171  0.6158  0.0052 -0.1309
                                         0.0250  0.4488 -0.2328  0.0086  0.2224
                                         0.0322  0.0134  0.2805 -0.1407  0.0637
                                        -0.0892 -0.3351 -0.2657  0.0537
  42. (0.00080) RY*( 7) C  1             s(  6.83%)p11.28( 76.98%)d 2.37( 16.20%)
                                         0.0000  0.0007  0.2343  0.0658 -0.0951
                                         0.0074  0.1690 -0.3296 -0.0005 -0.0513
                                         0.0994 -0.0418 -0.7837  0.0636  0.0495
                                         0.2747  0.2580 -0.1318  0.0096
  43. (0.00045) RY*( 8) C  1             s( 22.79%)p 2.54( 57.87%)d 0.85( 19.34%)
                                         0.0000  0.0124 -0.1717  0.4008  0.1939
                                        -0.0183 -0.1562 -0.4235 -0.0081 -0.1594
                                        -0.0833  0.0056 -0.1650 -0.5612 -0.0679
                                        -0.2824 -0.3191  0.0829  0.0164
  44. (0.00028) RY*( 9) C  1             s( 59.54%)p 0.54( 31.92%)d 0.14(  8.54%)
                                         0.0000 -0.0179  0.0082 -0.4998  0.5876
                                         0.0062  0.1918  0.1778  0.0040  0.0721
                                         0.3628 -0.0018 -0.1945 -0.2759  0.2037
                                        -0.1150 -0.0756  0.0914 -0.1287
  45. (0.00011) RY*(10) C  1             s( 16.43%)p 4.81( 79.08%)d 0.27(  4.49%)
                                         0.0000  0.0027 -0.0973  0.1490  0.3641
                                        -0.0102 -0.0198 -0.5715 -0.0031 -0.0497
                                         0.4000  0.0036  0.3352  0.4346  0.1120
                                         0.1439  0.0777  0.0697 -0.0286
  46. (0.00009) RY*(11) C  1             s( 51.91%)p 0.63( 32.91%)d 0.29( 15.18%)
  47. (0.00006) RY*(12) C  1             s(  2.01%)p22.54( 45.42%)d26.09( 52.57%)
  48. (0.00002) RY*(13) C  1             s(  7.11%)p 6.25( 44.46%)d 6.81( 48.43%)
  49. (0.00001) RY*(14) C  1             s(  7.35%)p 0.30(  2.17%)d12.32( 90.48%)
  50. (0.00516) RY*( 1) O  2             s( 23.14%)p 3.29( 76.09%)d 0.03(  0.77%)
                                         0.0000  0.0024  0.4786 -0.0443 -0.0210
                                        -0.0124  0.8622 -0.0093 -0.0176  0.1027
                                        -0.0634  0.0015  0.0487 -0.0004  0.0591
                                        -0.0078  0.0063  0.0640 -0.0047
  51. (0.00215) RY*( 2) O  2             s(  0.25%)p99.99( 98.14%)d 6.43(  1.61%)
                                         0.0000  0.0004  0.0437  0.0220 -0.0106
                                         0.0006  0.0455  0.0135 -0.0002 -0.1159
                                        -0.0086 -0.0021 -0.9785 -0.0900  0.0091
                                         0.0793 -0.0968  0.0082  0.0176
  52. (0.00105) RY*( 3) O  2             s( 67.06%)p 0.49( 32.57%)d 0.01(  0.37%)
                                         0.0000 -0.0017  0.8126 -0.0181 -0.1000
                                        -0.0028 -0.4876  0.1047 -0.0020  0.2714
                                        -0.0408 -0.0020 -0.0210  0.0340 -0.0416
                                        -0.0238 -0.0023  0.0375 -0.0012
  53. (0.00044) RY*( 4) O  2             s( 32.26%)p 1.75( 56.41%)d 0.35( 11.33%)
                                         0.0000  0.0053  0.2179  0.5064 -0.1366
                                         0.0140 -0.0066  0.0627 -0.0076 -0.5687
                                         0.4794 -0.0001  0.0801  0.0162  0.2818
                                        -0.0732 -0.0029 -0.1682 -0.0153
  54. (0.00019) RY*( 5) O  2             s( 36.99%)p 1.45( 53.73%)d 0.25(  9.28%)
                                         0.0000 -0.0021 -0.1398  0.5910  0.0326
                                         0.0026  0.0525  0.5551  0.0045  0.3301
                                        -0.3397  0.0010 -0.0235  0.0388  0.1314
                                        -0.0030  0.0503 -0.1168  0.2435
  55. (0.00009) RY*( 6) O  2             s( 18.17%)p 3.98( 72.22%)d 0.53(  9.61%)
  56. (0.00008) RY*( 7) O  2             s(  0.30%)p99.99( 89.20%)d34.56( 10.50%)
  57. (0.00007) RY*( 8) O  2             s( 13.79%)p 3.35( 46.13%)d 2.91( 40.09%)
  58. (0.00004) RY*( 9) O  2             s( 18.06%)p 0.46(  8.25%)d 4.08( 73.69%)
  59. (0.00001) RY*(10) O  2             s( 78.41%)p 0.13( 10.33%)d 0.14( 11.26%)
  60. (0.00001) RY*(11) O  2             s(  2.52%)p 3.66(  9.22%)d35.05( 88.26%)
  61. (0.00001) RY*(12) O  2             s(  6.59%)p 0.58(  3.85%)d13.58( 89.55%)
  62. (0.00001) RY*(13) O  2             s(  2.44%)p15.23( 37.08%)d24.83( 60.48%)
  63. (0.00000) RY*(14) O  2             s(  0.02%)p99.99(  7.41%)d99.99( 92.57%)
  64. (0.00406) RY*( 1) O  3             s( 14.65%)p 5.78( 84.74%)d 0.04(  0.61%)
                                         0.0000  0.0005  0.3698 -0.0944 -0.0286
                                        -0.0203  0.5512 -0.0093 -0.0021  0.7349
                                        -0.0273  0.0000  0.0471 -0.0032  0.0636
                                        -0.0077  0.0036  0.0342  0.0280
  65. (0.00209) RY*( 2) O  3             s(  0.27%)p99.99( 98.54%)d 4.34(  1.19%)
                                         0.0000  0.0004  0.0514  0.0042 -0.0084
                                        -0.0016  0.0636 -0.0066 -0.0003 -0.0112
                                        -0.0312 -0.0071 -0.9884  0.0568  0.0074
                                        -0.0312  0.1018 -0.0108 -0.0191
  66. (0.00079) RY*( 3) O  3             s( 77.44%)p 0.26( 20.23%)d 0.03(  2.32%)
                                         0.0000  0.0047  0.8423  0.2364 -0.0950
                                        -0.0181 -0.3877 -0.1988 -0.0026 -0.1012
                                         0.0292  0.0008  0.0179 -0.0278 -0.1031
                                         0.0103 -0.0061 -0.0628  0.0922
  67. (0.00052) RY*( 4) O  3             s( 40.92%)p 1.21( 49.34%)d 0.24(  9.74%)
                                         0.0000  0.0034 -0.3000  0.5599 -0.0753
                                         0.0014 -0.3506 -0.1876  0.0153  0.4816
                                         0.3163 -0.0025 -0.0507 -0.0220 -0.0047
                                        -0.0069  0.0282  0.3106 -0.0094
  68. (0.00014) RY*( 5) O  3             s( 20.50%)p 3.73( 76.55%)d 0.14(  2.95%)
                                         0.0000  0.0015  0.0217  0.4487  0.0566
                                        -0.0074 -0.0830  0.5511  0.0083  0.0753
                                        -0.6688  0.0014  0.0130  0.0400  0.1564
                                         0.0050 -0.0263  0.0401  0.0521
  69. (0.00008) RY*( 6) O  3             s( 11.72%)p 3.71( 43.49%)d 3.82( 44.79%)
  70. (0.00003) RY*( 7) O  3             s( 23.52%)p 2.76( 64.94%)d 0.49( 11.54%)
  71. (0.00001) RY*( 8) O  3             s( 91.36%)p 0.07(  6.24%)d 0.03(  2.39%)
  72. (0.00002) RY*( 9) O  3             s(  3.19%)p14.36( 45.84%)d15.97( 50.97%)
  73. (0.00001) RY*(10) O  3             s(  4.25%)p 9.25( 39.27%)d13.30( 56.49%)
  74. (0.00001) RY*(11) O  3             s(  0.36%)p19.97(  7.19%)d99.99( 92.45%)
  75. (0.00001) RY*(12) O  3             s(  0.07%)p99.99( 33.23%)d99.99( 66.70%)
  76. (0.00001) RY*(13) O  3             s( 11.09%)p 2.23( 24.75%)d 5.79( 64.16%)
  77. (0.00001) RY*(14) O  3             s(  0.64%)p 9.74(  6.22%)d99.99( 93.14%)
  78. (0.01632) RY*( 1) C  4             s( 14.39%)p 5.91( 85.12%)d 0.03(  0.48%)
                                         0.0000 -0.0555  0.3727  0.0432  0.0091
                                        -0.0081  0.1960 -0.0214  0.0721 -0.8887
                                        -0.0629 -0.0123  0.0964  0.0626  0.0022
                                         0.0295 -0.0541  0.0137  0.0292
  79. (0.00709) RY*( 2) C  4             s( 14.50%)p 2.76( 39.99%)d 3.14( 45.51%)
                                         0.0000  0.0235  0.3607 -0.1125 -0.0407
                                        -0.0117  0.1965 -0.0385  0.0116  0.2574
                                        -0.1370 -0.0588 -0.2483  0.4576  0.0214
                                         0.2696 -0.5643  0.0667  0.2431
  80. (0.00474) RY*( 3) C  4             s(  0.88%)p72.12( 63.25%)d40.90( 35.87%)
                                         0.0000  0.0035  0.0711  0.0608 -0.0012
                                         0.0110 -0.7506  0.1319 -0.0108 -0.1043
                                        -0.1677 -0.0200  0.0082  0.1095 -0.5413
                                         0.1171 -0.0701  0.2080  0.0619
  81. (0.00318) RY*( 4) C  4             s( 30.25%)p 1.09( 32.97%)d 1.22( 36.78%)
                                         0.0000 -0.0072  0.5400  0.0546 -0.0885
                                         0.0225  0.3677  0.1196  0.0337  0.3020
                                        -0.0128  0.0151  0.2408 -0.1703 -0.5235
                                        -0.0454  0.2671  0.0644 -0.1271
  82. (0.00223) RY*( 5) C  4             s( 33.34%)p 0.83( 27.84%)d 1.16( 38.82%)
                                         0.0000 -0.0042  0.5609  0.1188 -0.0683
                                        -0.0152 -0.4146 -0.0992  0.0155  0.1711
                                        -0.1451  0.0049  0.2127 -0.0226  0.5854
                                        -0.1653  0.1158 -0.0100 -0.0688
  83. (0.00084) RY*( 6) C  4             s( 14.22%)p 4.01( 57.02%)d 2.02( 28.76%)
                                         0.0000  0.0075  0.2911 -0.2196  0.0958
                                        -0.0103 -0.2000 -0.2851  0.0344 -0.0259
                                         0.4798 -0.0159 -0.4340 -0.1677 -0.1758
                                        -0.1259 -0.0215 -0.4903  0.0021
  84. (0.00066) RY*( 7) C  4             s( 11.90%)p 4.60( 54.70%)d 2.81( 33.41%)
                                         0.0000  0.0143  0.1228  0.3146 -0.0684
                                        -0.0032  0.0404  0.2671 -0.0183 -0.0298
                                         0.2012 -0.0158 -0.6341 -0.1729  0.1375
                                        -0.0521  0.1771  0.5219  0.0932
  85. (0.00042) RY*( 8) C  4             s(  2.02%)p 9.10( 18.38%)d39.40( 79.60%)
                                         0.0000  0.0051 -0.0590  0.0837  0.0984
                                         0.0037  0.0744 -0.3438 -0.0105  0.0102
                                        -0.2336 -0.0104 -0.0535  0.0482 -0.1658
                                        -0.8191 -0.2073  0.1971  0.1257
  86. (0.00034) RY*( 9) C  4             s( 29.99%)p 1.86( 55.88%)d 0.47( 14.13%)
                                         0.0000  0.0051 -0.0481  0.5455 -0.0070
                                         0.0050  0.0045 -0.2400 -0.0060  0.0346
                                         0.4545 -0.0036  0.2164  0.4965 -0.0613
                                         0.0334  0.2244 -0.0504  0.2889
  87. (0.00032) RY*(10) C  4             s( 40.97%)p 0.46( 18.67%)d 0.99( 40.36%)
                                         0.0000 -0.0008 -0.0204  0.6391 -0.0291
                                        -0.0036  0.0051  0.1997  0.0087  0.0257
                                        -0.0073 -0.0162  0.0631 -0.3765 -0.0295
                                         0.0078 -0.5390 -0.3247 -0.0820
  88. (0.00013) RY*(11) C  4             s( 11.14%)p 6.09( 67.83%)d 1.89( 21.03%)
                                         0.0000  0.0100 -0.0126  0.2535  0.2165
                                         0.0001  0.0515 -0.6418 -0.0023  0.0279
                                        -0.4095  0.0019 -0.2008 -0.2345 -0.0545
                                         0.4122  0.1898  0.0345 -0.0163
  89. (0.00011) RY*(12) C  4             s( 44.35%)p 0.71( 31.30%)d 0.55( 24.36%)
                                         0.0000  0.0044  0.0552  0.0887  0.6577
                                        -0.0011  0.0372  0.4142  0.0097  0.0331
                                        -0.2927 -0.0014 -0.1478  0.1769  0.0211
                                        -0.1007  0.2572 -0.3436  0.2208
  90. (0.00004) RY*(13) C  4             s( 48.98%)p 0.50( 24.36%)d 0.54( 26.65%)
  91. (0.00004) RY*(14) C  4             s(  2.98%)p 7.82( 23.32%)d24.73( 73.70%)
  92. (0.01444) RY*( 1) C  5             s( 44.19%)p 1.24( 54.83%)d 0.02(  0.98%)
                                         0.0000  0.0153  0.6641 -0.0104  0.0233
                                        -0.0022  0.1776 -0.0459 -0.0206  0.0163
                                         0.0473  0.1124  0.6948 -0.1276 -0.0087
                                         0.0033 -0.0416 -0.0012  0.0895
  93. (0.00172) RY*( 2) C  5             s( 53.08%)p 0.84( 44.53%)d 0.04(  2.39%)
                                         0.0000 -0.0242  0.5447  0.4831  0.0093
                                         0.0069 -0.0808 -0.0322 -0.0216  0.2962
                                         0.1975  0.0086 -0.5365 -0.1502  0.0451
                                         0.1105  0.0962 -0.0054 -0.0185
  94. (0.00115) RY*( 3) C  5             s(  4.51%)p20.42( 92.03%)d 0.77(  3.46%)
                                         0.0000 -0.0036  0.1739  0.1144 -0.0415
                                         0.0182 -0.6810 -0.3252  0.0330 -0.5853
                                        -0.0649 -0.0015  0.0165  0.0468  0.0680
                                        -0.1419  0.0117  0.0950  0.0269
  95. (0.00086) RY*( 4) C  5             s(  4.80%)p17.62( 84.54%)d 2.22( 10.67%)
                                         0.0000 -0.0100  0.0498  0.2125 -0.0159
                                        -0.0118  0.5698 -0.0547  0.0239 -0.6474
                                        -0.2070 -0.0040 -0.1983 -0.1251  0.0041
                                         0.3015 -0.1101 -0.0469  0.0379
  96. (0.00040) RY*( 5) C  5             s(  3.65%)p19.45( 71.09%)d 6.91( 25.26%)
                                         0.0000 -0.0053  0.1260  0.1424  0.0187
                                        -0.0051 -0.0449  0.6771  0.0066 -0.0769
                                        -0.4849 -0.0066 -0.0541 -0.0792 -0.0058
                                        -0.4397  0.1145  0.1281  0.1722
  97. (0.00015) RY*( 6) C  5             s( 28.88%)p 1.21( 34.93%)d 1.25( 36.19%)
                                         0.0000 -0.0004 -0.2753  0.4609  0.0241
                                        -0.0087 -0.0634  0.1459 -0.0095 -0.0575
                                         0.2831 -0.0017  0.2192 -0.4385 -0.1472
                                        -0.1990 -0.4042 -0.0107 -0.3704
  98. (0.00012) RY*( 7) C  5             s( 22.10%)p 2.06( 45.48%)d 1.47( 32.42%)
                                         0.0000  0.0073 -0.1595  0.4421 -0.0009
                                        -0.0249  0.2695 -0.5039 -0.0010  0.1491
                                        -0.2234 -0.0023  0.1233  0.2006 -0.1823
                                        -0.4256  0.3242  0.0681  0.0117
  99. (0.00009) RY*( 8) C  5             s( 10.23%)p 6.47( 66.22%)d 2.30( 23.55%)
 100. (0.00007) RY*( 9) C  5             s(  8.30%)p 2.81( 23.31%)d 8.24( 68.40%)
 101. (0.00003) RY*(10) C  5             s(  9.51%)p 5.54( 52.69%)d 3.97( 37.79%)
 102. (0.00002) RY*(11) C  5             s(  3.00%)p 3.26(  9.78%)d29.09( 87.22%)
 103. (0.00000) RY*(12) C  5             s( 95.26%)p 0.00(  0.42%)d 0.05(  4.32%)
 104. (0.00001) RY*(13) C  5             s(  0.94%)p 8.57(  8.08%)d96.58( 90.98%)
 105. (0.00001) RY*(14) C  5             s( 10.92%)p 1.19( 13.02%)d 6.96( 76.05%)
 106. (0.00338) RY*( 1) O  6             s(  2.11%)p46.16( 97.19%)d 0.33(  0.70%)
                                         0.0000 -0.0002  0.1419  0.0304 -0.0007
                                        -0.0048  0.7513 -0.0658  0.0005 -0.0479
                                        -0.0136 -0.0035 -0.6329  0.0065 -0.0547
                                        -0.0216  0.0552 -0.0090 -0.0205
 107. (0.00264) RY*( 2) O  6             s(  1.97%)p49.45( 97.63%)d 0.20(  0.40%)
                                         0.0000 -0.0005  0.1363  0.0157 -0.0302
                                        -0.0001 -0.6450  0.0566  0.0007 -0.1816
                                        -0.0113 -0.0089 -0.7230 -0.0320  0.0258
                                        -0.0203  0.0473 -0.0150 -0.0212
 108. (0.00090) RY*( 3) O  6             s( 86.60%)p 0.12( 10.39%)d 0.03(  3.01%)
                                         0.0000  0.0043  0.9238  0.1119 -0.0051
                                        -0.0030 -0.0312 -0.1041  0.0180  0.0869
                                         0.2249 -0.0008  0.1726 -0.0618 -0.0046
                                         0.0089  0.0104 -0.1119  0.1319
 109. (0.00037) RY*( 4) O  6             s( 21.00%)p 3.56( 74.86%)d 0.20(  4.14%)
                                         0.0000 -0.0014  0.0797  0.4392 -0.1037
                                         0.0026  0.0547 -0.0141 -0.0018 -0.7794
                                        -0.3045  0.0017  0.1742  0.1218  0.0075
                                        -0.0105  0.0792  0.1733  0.0703
 110. (0.00021) RY*( 5) O  6             s( 38.46%)p 1.42( 54.58%)d 0.18(  6.96%)
                                         0.0000 -0.0038 -0.2379  0.4938  0.2900
                                        -0.0027 -0.0436 -0.5898 -0.0164 -0.0234
                                         0.3268  0.0045 -0.0366 -0.2950  0.0649
                                         0.0047 -0.0792 -0.2395 -0.0416
 111. (0.00011) RY*( 6) O  6             s( 11.28%)p 7.73( 87.21%)d 0.13(  1.50%)
                                         0.0000 -0.0012  0.0126 -0.1418  0.3043
                                        -0.0010 -0.0510 -0.3281 -0.0019 -0.0292
                                         0.0688 -0.0037 -0.0246  0.8693  0.0329
                                         0.0670  0.0161 -0.0900  0.0331
 112. (0.00009) RY*( 7) O  6             s(  6.90%)p10.62( 73.26%)d 2.88( 19.84%)
 113. (0.00004) RY*( 8) O  6             s( 37.75%)p 0.34( 12.70%)d 1.31( 49.56%)
 114. (0.00003) RY*( 9) O  6             s( 33.31%)p 0.85( 28.20%)d 1.16( 38.49%)
 115. (0.00002) RY*(10) O  6             s(  2.73%)p 0.72(  1.97%)d34.89( 95.30%)
 116. (0.00001) RY*(11) O  6             s( 40.60%)p 0.32( 12.79%)d 1.15( 46.61%)
 117. (0.00000) RY*(12) O  6             s(  0.98%)p 1.87(  1.84%)d98.86( 97.18%)
 118. (0.00001) RY*(13) O  6             s(  8.55%)p 5.51( 47.13%)d 5.19( 44.33%)
 119. (0.00001) RY*(14) O  6             s(  7.75%)p 0.10(  0.79%)d11.80( 91.47%)
 120. (0.01624) RY*( 1) C  7             s( 13.30%)p 6.47( 86.08%)d 0.05(  0.63%)
                                         0.0000 -0.0427  0.3603  0.0268 -0.0245
                                         0.0416 -0.5864 -0.0978  0.0392 -0.6994
                                        -0.0740  0.0065  0.0769  0.0595 -0.0493
                                        -0.0346 -0.0087 -0.0307  0.0401
 121. (0.00959) RY*( 2) C  7             s(  3.50%)p23.16( 81.15%)d 4.38( 15.35%)
                                         0.0000  0.0058 -0.1226  0.1401  0.0182
                                        -0.0122  0.6042 -0.3452  0.0118 -0.5475
                                         0.1537 -0.0129  0.0578  0.0028  0.0039
                                         0.0158  0.0555  0.3861 -0.0328
 122. (0.00637) RY*( 3) C  7             s(  5.30%)p 8.72( 46.23%)d 9.14( 48.46%)
                                         0.0000  0.0103  0.1845 -0.1355  0.0230
                                         0.0038  0.1630 -0.1052  0.0029  0.0308
                                        -0.1303  0.0289 -0.4064  0.4907 -0.0574
                                        -0.5528 -0.2788  0.0011  0.3131
 123. (0.00419) RY*( 4) C  7             s( 17.16%)p 2.76( 47.34%)d 2.07( 35.49%)
                                         0.0000 -0.0070 -0.1972  0.3642  0.0080
                                        -0.0235 -0.4537 -0.2275  0.0128  0.2454
                                         0.2885 -0.0082 -0.2661  0.0281 -0.0189
                                        -0.0533 -0.0415  0.5916  0.0041
 124. (0.00216) RY*( 5) C  7             s( 28.53%)p 2.06( 58.88%)d 0.44( 12.59%)
                                         0.0000 -0.0151  0.5329  0.0303 -0.0124
                                         0.0071  0.0546 -0.2906  0.0104  0.3553
                                        -0.0911  0.0220  0.6029  0.0517 -0.0364
                                        -0.1468  0.1761  0.2526  0.0910
 125. (0.00158) RY*( 6) C  7             s( 47.91%)p 0.81( 38.84%)d 0.28( 13.25%)
                                         0.0000  0.0165  0.6739  0.1545  0.0279
                                         0.0261  0.1895  0.0226  0.0065  0.0775
                                         0.0453 -0.0291 -0.5040 -0.2972  0.0344
                                         0.2847 -0.1126  0.0371 -0.1903
 126. (0.00079) RY*( 7) C  7             s( 41.84%)p 0.83( 34.92%)d 0.56( 23.24%)
                                         0.0000  0.0010 -0.0260  0.6445 -0.0481
                                         0.0169  0.0676  0.3194  0.0148 -0.0452
                                        -0.4604 -0.0098  0.1101  0.1260  0.4587
                                        -0.0481 -0.1268  0.0582  0.0147
 127. (0.00052) RY*( 8) C  7             s(  2.91%)p 6.86( 19.93%)d26.55( 77.17%)
                                         0.0000  0.0061 -0.0441  0.1638 -0.0154
                                        -0.0210  0.0536  0.1873 -0.0198  0.0028
                                        -0.3664 -0.0007  0.0166  0.1611 -0.8029
                                         0.2973 -0.0866  0.1695  0.0494
 128. (0.00036) RY*( 9) C  7             s(  4.55%)p 8.69( 39.54%)d12.29( 55.91%)
                                         0.0000  0.0147  0.1084  0.1539  0.0993
                                        -0.0011  0.0678  0.5274 -0.0080 -0.0904
                                         0.2660  0.0015 -0.0805 -0.1647 -0.1506
                                        -0.3245  0.5698  0.0784  0.3166
 129. (0.00023) RY*(10) C  7             s(  3.79%)p17.38( 65.94%)d 7.98( 30.27%)
                                         0.0000 -0.0005  0.1335  0.0060  0.1416
                                         0.0012  0.0256  0.1897  0.0037  0.0101
                                         0.4291  0.0030  0.0886  0.6562  0.1631
                                         0.5006  0.0173 -0.0227  0.1570
 130. (0.00018) RY*(11) C  7             s( 34.33%)p 0.56( 19.35%)d 1.35( 46.32%)
                                         0.0000 -0.0030 -0.0022  0.5587 -0.1763
                                        -0.0030  0.0467 -0.3011 -0.0162  0.0524
                                         0.2923 -0.0092  0.0254  0.1074 -0.2552
                                        -0.1459  0.0645 -0.5960 -0.1319
 131. (0.00006) RY*(12) C  7             s( 14.27%)p 2.31( 33.01%)d 3.69( 52.71%)
 132. (0.00002) RY*(13) C  7             s( 64.97%)p 0.04(  2.91%)d 0.49( 32.12%)
 133. (0.00003) RY*(14) C  7             s( 17.65%)p 1.49( 26.23%)d 3.18( 56.12%)
 134. (0.00347) RY*( 1) O  8             s(  4.46%)p21.14( 94.37%)d 0.26(  1.16%)
                                         0.0000 -0.0030  0.2096  0.0263 -0.0028
                                         0.0121 -0.6765  0.0815 -0.0038  0.6360
                                        -0.0762  0.0008 -0.2595  0.0405  0.0114
                                         0.0280  0.0309  0.0988  0.0021
 135. (0.00280) RY*( 2) O  8             s(  0.26%)p99.99( 98.64%)d 4.25(  1.10%)
                                         0.0000  0.0001  0.0365 -0.0186 -0.0303
                                        -0.0044  0.1114 -0.0079  0.0006 -0.2821
                                        -0.0109  0.0035 -0.9438  0.0588  0.0092
                                         0.0667  0.0435 -0.0307 -0.0606
 136. (0.00052) RY*( 3) O  8             s( 70.57%)p 0.37( 26.27%)d 0.04(  3.16%)
                                         0.0000  0.0054  0.8266  0.1352 -0.0643
                                         0.0157  0.3809  0.2984  0.0058  0.1214
                                         0.0715 -0.0031  0.0291 -0.0869  0.1454
                                         0.0126 -0.0293 -0.0582  0.0781
 137. (0.00030) RY*( 4) O  8             s( 27.80%)p 2.45( 68.12%)d 0.15(  4.07%)
[...]
 O          0.013  0.203  0.000    0.002  0.007  0.314    0.050  0.155 -0.045
 C         -0.098 -0.020  0.121   -0.104 -0.133 -0.077   -0.048  0.005  0.003
 H         -0.164 -0.178  0.078   -0.161 -0.273 -0.163   -0.147 -0.240 -0.336
 H         -0.206  0.083  0.393   -0.204 -0.037  0.199   -0.231  0.183  0.187
 H         -0.149 -0.206 -0.005   -0.199 -0.307 -0.197   -0.203  0.060  0.054
 H         -0.167 -0.177 -0.075    0.148  0.256 -0.157   -0.143 -0.329  0.359
 H         -0.151 -0.204  0.006    0.185  0.301 -0.202   -0.191 -0.111  0.089
 H         -0.209  0.077 -0.388    0.187  0.050  0.178   -0.227  0.105 -0.186
 TransDip  -0.026 -0.023  0.001   -0.001 -0.003 -0.129   -0.023 -0.061 -0.019

 Mode:                13                     14                     15
 Frequency:       537.71                 601.90                 766.05
 Force Cnst:      1.0400                 1.0260                 4.5101
 Red. Mass:       6.1053                 4.8066                13.0443
 IR Active:          YES                    YES                    YES
 IR Intens:        6.079                 14.638                 76.464
 Raman Active:       YES                    YES                    YES
               X      Y      Z        X      Y      Z        X      Y      Z
 C         -0.020  0.040  0.376    0.039 -0.033 -0.011   -0.439 -0.340  0.019
 O          0.042  0.047 -0.122   -0.094 -0.061  0.004    0.380 -0.351  0.004
 O         -0.035  0.011 -0.131    0.043 -0.050  0.005   -0.052  0.465 -0.012
 C         -0.002 -0.052  0.331    0.045  0.195 -0.011   -0.268  0.042 -0.025
 C         -0.039  0.127 -0.126    0.033 -0.157  0.240    0.008 -0.037  0.049
 O         -0.028 -0.059 -0.085   -0.080  0.207  0.005    0.110  0.104  0.005
 C          0.088 -0.016 -0.110    0.148 -0.052  0.000    0.032  0.047 -0.013
 O          0.018  0.059  0.147   -0.075  0.110 -0.001    0.067  0.038 -0.001
 C          0.012 -0.162 -0.165    0.029 -0.156 -0.235    0.009 -0.019 -0.031
 H         -0.031 -0.270 -0.164   -0.014 -0.266 -0.426   -0.030 -0.123 -0.112
 H         -0.054 -0.099  0.047   -0.052 -0.079 -0.201   -0.037  0.026  0.060
 H         -0.032 -0.331 -0.279   -0.052 -0.077 -0.174   -0.035 -0.089 -0.081
 H         -0.070  0.046  0.125   -0.009 -0.264  0.427   -0.021 -0.116  0.106
 H         -0.117  0.310 -0.261   -0.047 -0.082  0.181   -0.019 -0.092  0.090
 H         -0.112  0.201 -0.077   -0.047 -0.082  0.204   -0.019 -0.012 -0.005
 TransDip  -0.005 -0.016  0.077    0.090  0.083 -0.005   -0.278 -0.033 -0.004

 Mode:                16                     17                     18
 Frequency:       787.37                 810.92                 857.28
 Force Cnst:      1.9129                 1.1942                 0.8968
 Red. Mass:       5.2369                 3.0824                 2.0711
 IR Active:          YES                    YES                    YES
 IR Intens:        5.200                  1.951                 30.804
 Raman Active:       YES                    YES                    YES
               X      Y      Z        X      Y      Z        X      Y      Z
 C          0.009  0.014  0.376   -0.011  0.013 -0.003   -0.001  0.002  0.134
 O         -0.010  0.008 -0.089    0.006  0.034  0.000    0.000  0.000 -0.030
 O          0.004 -0.014 -0.090   -0.032 -0.003  0.000    0.001 -0.001 -0.029
 C          0.000 -0.001 -0.317    0.042 -0.072  0.007   -0.001  0.000 -0.150
 C         -0.015 -0.141  0.130   -0.041 -0.053  0.160    0.007  0.110 -0.020
 O         -0.002 -0.005  0.053    0.030 -0.089 -0.002    0.000 -0.002  0.030
 C         -0.004  0.002 -0.211   -0.151  0.248 -0.001    0.000  0.002  0.165
 O          0.000 -0.001 -0.003    0.116  0.047  0.000    0.001  0.001 -0.003
 C          0.016  0.141  0.123   -0.043 -0.055 -0.161   -0.008 -0.111 -0.021
 H         -0.068 -0.058 -0.022    0.024  0.119  0.282    0.041 -0.004 -0.274
 H         -0.131  0.280  0.438    0.105 -0.202 -0.159    0.016 -0.127 -0.405
 H         -0.102 -0.043  0.001    0.139 -0.313 -0.358   -0.054  0.327  0.290
 H          0.071  0.065 -0.034    0.022  0.115 -0.278   -0.043  0.003 -0.278
 H          0.107  0.035  0.010    0.139 -0.305  0.356    0.057 -0.329  0.297
 H          0.138 -0.280  0.441    0.104 -0.197  0.158   -0.016  0.118 -0.400
 TransDip   0.011  0.003 -0.072    0.043  0.013  0.000    0.000  0.001  0.178

 Mode:                19                     20                     21
 Frequency:       938.62                 989.60                1030.03
 Force Cnst:      3.5296                 0.7805                 1.1801
 Red. Mass:       6.7998                 1.3527                 1.8879
 IR Active:          YES                    YES                    YES
 IR Intens:       55.478                  5.247                 58.614
 Raman Active:       YES                    YES                    YES
               X      Y      Z        X      Y      Z        X      Y      Z
 C         -0.139 -0.050  0.009    0.000  0.001  0.047    0.008  0.000 -0.001
 O          0.076 -0.058  0.000    0.000  0.000 -0.011   -0.007  0.011  0.000
 O         -0.157  0.099 -0.006    0.001 -0.001 -0.009    0.016 -0.010  0.001
 C          0.622  0.086 -0.003   -0.003  0.000 -0.076   -0.071 -0.005  0.002
 C         -0.059 -0.019 -0.035    0.098 -0.020 -0.023   -0.058 -0.087 -0.052
 O         -0.136 -0.032  0.001    0.001  0.000  0.014    0.012  0.005  0.000
 C         -0.003 -0.072 -0.001    0.000  0.000  0.041   -0.036 -0.054 -0.002
 O         -0.080  0.010  0.001    0.002  0.002  0.008    0.116  0.133 -0.001
 C         -0.061 -0.017  0.036   -0.099  0.019 -0.021   -0.055 -0.086  0.056
 H          0.047  0.246  0.212    0.022  0.294  0.476    0.053  0.156 -0.050
 H          0.079 -0.136 -0.240    0.148 -0.216 -0.162    0.076 -0.197 -0.445
 H          0.080  0.169  0.157    0.186 -0.137 -0.152    0.038  0.304  0.313
 H          0.047  0.240 -0.202   -0.019 -0.289  0.482    0.055  0.166  0.034
 H          0.075  0.177 -0.168   -0.186  0.139 -0.157    0.042  0.299 -0.312
 H          0.078 -0.132  0.243   -0.147  0.210 -0.154    0.083 -0.199  0.449
 TransDip   0.226 -0.076  0.001   -0.005  0.000  0.073   -0.159 -0.186 -0.001

 Mode:                22                     23                     24
 Frequency:      1111.72                1160.79                1244.70
 Force Cnst:      1.8461                 1.7103                 4.4530
 Red. Mass:       2.5351                 2.1544                 4.8784
 IR Active:          YES                    YES                    YES
 IR Intens:       55.762                  8.790                213.067
 Raman Active:       YES                    YES                    YES
               X      Y      Z        X      Y      Z        X      Y      Z
 C          0.000  0.000  0.035   -0.009 -0.007  0.001    0.003 -0.011  0.000
 O          0.000  0.000 -0.009    0.002  0.005  0.000    0.000  0.016  0.000
 O          0.001  0.000 -0.007   -0.010  0.001  0.000    0.007 -0.001  0.000
 C         -0.001  0.000 -0.066    0.055 -0.005  0.000   -0.073 -0.031  0.000
 C         -0.060 -0.045 -0.099    0.092 -0.072 -0.035   -0.088 -0.064 -0.023
 O          0.001 -0.001  0.014    0.000 -0.016  0.000    0.020 -0.009  0.000
 C          0.000  0.000  0.311   -0.149  0.211  0.001    0.382  0.316 -0.002
 O          0.001  0.001 -0.060   -0.010 -0.055  0.000   -0.171 -0.160  0.001
 C          0.059  0.044 -0.101    0.093 -0.072  0.034   -0.088 -0.062  0.024
 H         -0.065 -0.239 -0.008    0.015 -0.212 -0.443    0.095  0.301  0.129
 H         -0.052  0.123  0.356   -0.155  0.165 -0.031    0.066 -0.179 -0.257
 H         -0.055 -0.325 -0.338   -0.199  0.226  0.252    0.172  0.221  0.180
 H          0.067  0.243 -0.016    0.017 -0.207  0.446    0.097  0.304 -0.135
 H          0.055  0.322 -0.341   -0.199  0.225 -0.254    0.171  0.226 -0.189
 H          0.056 -0.122  0.360   -0.153  0.165  0.031    0.066 -0.175  0.258
 TransDip  -0.004  0.000  0.239    0.055  0.077  0.001    0.305  0.354 -0.004

 Mode:                25                     26                     27
 Frequency:      1328.18                1331.28                1351.90
 Force Cnst:      9.1599                 1.2568                 1.3848
 Red. Mass:       8.8130                 1.2036                 1.2860
 IR Active:          YES                    YES                    YES
 IR Intens:      126.261                 23.299                 59.341
 Raman Active:       YES                    YES                    YES
               X      Y      Z        X      Y      Z        X      Y      Z
 C          0.452  0.339  0.000   -0.007 -0.004  0.000    0.051  0.019  0.000
 O          0.009 -0.387  0.006    0.000  0.005  0.001    0.000 -0.029  0.000
 O         -0.325  0.146 -0.005    0.005 -0.002  0.000   -0.037  0.016 -0.001
 C         -0.064 -0.019  0.000    0.001  0.000 -0.001    0.005  0.006  0.000
 C          0.005 -0.039  0.038   -0.015  0.052 -0.075   -0.015  0.054 -0.080
 O          0.007 -0.005  0.000    0.000  0.000  0.001   -0.001 -0.007  0.000
 C         -0.003  0.009  0.001    0.000  0.000 -0.003    0.010  0.018  0.000
 O          0.020  0.009  0.000    0.000  0.000  0.001   -0.010 -0.011  0.000
 C          0.007 -0.048 -0.051    0.014 -0.055 -0.077   -0.013  0.052  0.076
 H          0.083  0.162  0.196    0.098  0.193  0.332   -0.097 -0.184 -0.317
 H         -0.144  0.107  0.248   -0.189  0.149  0.374    0.185 -0.144 -0.360
 H         -0.010  0.239  0.161   -0.053  0.325  0.214    0.049 -0.304 -0.197
 H          0.065  0.126 -0.140   -0.092 -0.180  0.322   -0.098 -0.188  0.337
 H         -0.003  0.182 -0.126    0.054 -0.311  0.209    0.056 -0.318  0.210
 H         -0.114  0.081 -0.185    0.187 -0.142  0.363    0.198 -0.150  0.382
 TransDip   0.311  0.181  0.006   -0.015 -0.003  0.154    0.241 -0.051  0.005

 Mode:                28                     29                     30
 Frequency:      1482.64                1495.27                1500.14
 Force Cnst:      1.3604                 1.3946                 1.4026
 Red. Mass:       1.0504                 1.0587                 1.0578
 IR Active:          YES                    YES                    YES
 IR Intens:        0.314                 14.127                  1.331
 Raman Active:       YES                    YES                    YES
               X      Y      Z        X      Y      Z        X      Y      Z
 C          0.000  0.000  0.000   -0.017  0.016  0.000    0.000  0.000  0.000
 O          0.000  0.000  0.001    0.001 -0.007  0.000    0.000  0.000 -0.001
 O          0.000  0.000  0.000    0.011 -0.006  0.000    0.000  0.000  0.000
 C          0.000  0.000  0.001    0.002  0.004  0.000    0.000  0.000  0.001
 C          0.026  0.028  0.015   -0.017 -0.030 -0.024    0.035 -0.022 -0.022
 O          0.000  0.000  0.000    0.000 -0.003  0.000    0.000  0.000  0.000
 C          0.000  0.000  0.018   -0.015 -0.016  0.000    0.000  0.000 -0.006
 O          0.000  0.000 -0.003    0.002  0.003  0.000    0.000  0.000  0.001
 C         -0.027 -0.029  0.016   -0.016 -0.028  0.023   -0.036  0.022 -0.023
 H          0.152  0.347 -0.342    0.164  0.369 -0.290   -0.120 -0.217 -0.118
 H         -0.168  0.119  0.141   -0.230  0.191  0.053    0.304 -0.311  0.319
 H          0.426 -0.092 -0.087    0.319 -0.150 -0.113    0.299  0.219  0.100
 H         -0.149 -0.336 -0.321    0.173  0.387  0.298    0.116  0.208 -0.115
 H         -0.408  0.087 -0.080    0.336 -0.154  0.116   -0.288 -0.210  0.101
 H          0.163 -0.114  0.136   -0.240  0.199 -0.059   -0.292  0.306  0.309
 TransDip  -0.001  0.001  0.018   -0.101  0.065 -0.002    0.001 -0.001  0.037

 Mode:                31                     32                     33
 Frequency:      1516.32                1644.29                1734.79
 Force Cnst:      1.4303                18.1750                23.2891
 Red. Mass:       1.0559                11.4095                13.1345
 IR Active:          YES                    YES                    YES
 IR Intens:        6.346                508.016                273.872
 Raman Active:       YES                    YES                    YES
               X      Y      Z        X      Y      Z        X      Y      Z
 C          0.000 -0.003  0.000   -0.469  0.670 -0.013   -0.012  0.015 -0.001
 O          0.000  0.002  0.000    0.052 -0.296  0.004   -0.003 -0.023  0.001
 O         -0.001  0.001  0.000    0.278 -0.179  0.005    0.027 -0.010  0.001
 C          0.006  0.002  0.000    0.038 -0.041  0.001   -0.124  0.808  0.008
 C         -0.037  0.012  0.017   -0.001  0.013 -0.005    0.006 -0.009  0.011
 O          0.000 -0.002  0.000   -0.010 -0.002  0.000    0.073 -0.558 -0.006
 C         -0.026  0.011  0.000    0.009  0.030 -0.001    0.012 -0.008 -0.001
 O          0.004 -0.001  0.000   -0.001 -0.008  0.000   -0.011 -0.010  0.000
 C         -0.035  0.012 -0.017   -0.001  0.013  0.005    0.006 -0.009 -0.011
 H         -0.078 -0.128 -0.209   -0.060 -0.135  0.028    0.017 -0.013  0.048
 H          0.236 -0.254  0.338    0.123 -0.104 -0.094   -0.002 -0.002  0.010
 H          0.374  0.185  0.078   -0.072  0.015  0.008   -0.033  0.042  0.017
 H         -0.079 -0.129  0.218   -0.061 -0.136 -0.026    0.017 -0.014 -0.051
 H          0.388  0.189 -0.085   -0.071  0.015 -0.007   -0.035  0.043 -0.018
 H          0.240 -0.266 -0.350    0.125 -0.105  0.093   -0.001 -0.003 -0.010
 TransDip   0.070 -0.040 -0.001   -0.455  0.561 -0.015   -0.168  0.503  0.002

 Mode:                34                     35                     36
 Frequency:      2981.53                2989.33                3039.54
 Force Cnst:      5.4238                 5.4494                 5.9838
 Red. Mass:       1.0356                 1.0350                 1.0993
 IR Active:          YES                    YES                    YES
 IR Intens:       93.786                142.674                 70.298
 Raman Active:       YES                    YES                    YES
               X      Y      Z        X      Y      Z        X      Y      Z
 C          0.000  0.000  0.000    0.000  0.000  0.000    0.000  0.000  0.000
 O          0.000  0.000  0.000    0.000  0.000  0.000    0.000  0.000  0.000
 O          0.000  0.000  0.000    0.000  0.000  0.000    0.000  0.000  0.000
 C          0.000  0.000 -0.001    0.002 -0.001  0.000    0.000  0.000  0.000
 C         -0.024  0.016 -0.024   -0.020  0.014 -0.023    0.042 -0.037 -0.040
 O          0.000  0.000  0.000    0.000  0.001  0.000    0.000  0.000  0.000
 C          0.000  0.000  0.000   -0.003 -0.001  0.000    0.000  0.000 -0.001
 O          0.000  0.000  0.000    0.001  0.000  0.000    0.000  0.000  0.000
 C          0.021 -0.015 -0.022   -0.021  0.015  0.025   -0.038  0.031 -0.034
 H         -0.470  0.203 -0.019    0.502 -0.218  0.018    0.363 -0.150  0.001
 H          0.184  0.179 -0.002   -0.206 -0.201  0.004    0.059  0.077 -0.006
 H          0.037 -0.211  0.281   -0.039  0.239 -0.323    0.030 -0.299  0.418
 H          0.519 -0.225 -0.023    0.462 -0.202 -0.018   -0.410  0.170  0.002
 H         -0.037  0.233  0.304   -0.033  0.218  0.290   -0.031  0.350  0.481
 H         -0.198 -0.192  0.001   -0.183 -0.178 -0.001   -0.065 -0.086 -0.006
 TransDip  -0.021  0.008 -0.309   -0.329  0.194  0.017    0.014 -0.016 -0.268

 Mode:                37                     38                     39
 Frequency:      3046.06                3090.33                3097.82
 Force Cnst:      5.9998                 6.1910                 6.2145
 Red. Mass:       1.0975                 1.1003                 1.0991
 IR Active:          YES                    YES                    YES
 IR Intens:      104.750                  5.657                 87.051
 Raman Active:       YES                    YES                    YES
               X      Y      Z        X      Y      Z        X      Y      Z
 C          0.000  0.000  0.000    0.000  0.000  0.000    0.000 -0.001  0.000
 O          0.000  0.000  0.000    0.000  0.000  0.001   -0.001  0.000  0.000
 O          0.000  0.000  0.000    0.000  0.000  0.000    0.000  0.000  0.000
 C          0.001  0.000  0.000    0.000  0.000  0.000    0.000  0.000  0.000
 C         -0.036  0.033  0.034    0.037  0.036  0.010   -0.054 -0.049 -0.014
 O          0.000  0.000  0.000    0.000  0.000  0.000    0.000  0.000  0.000
 C         -0.003  0.003  0.000   -0.001  0.000  0.002   -0.003 -0.001  0.000
 O          0.001 -0.001  0.000    0.000  0.000 -0.001    0.001  0.000  0.000
 C         -0.042  0.037 -0.039   -0.053 -0.050  0.016   -0.038 -0.034  0.010
 H          0.427 -0.178 -0.004    0.158 -0.080  0.008    0.122 -0.061  0.005
 H          0.047  0.069 -0.009    0.525  0.534  0.009    0.370  0.377  0.008
 H          0.035 -0.338  0.477   -0.032  0.150 -0.217   -0.021  0.098 -0.143
 H          0.368 -0.154  0.003   -0.105  0.053  0.006    0.165 -0.083 -0.007
 H          0.027 -0.301 -0.416    0.021 -0.106 -0.151   -0.028  0.141  0.202
 H          0.039  0.058  0.007   -0.371 -0.376  0.013    0.528  0.537 -0.020
 TransDip  -0.253  0.208 -0.017   -0.033 -0.044 -0.052   -0.171 -0.245  0.012

 STANDARD THERMODYNAMIC QUANTITIES AT   298.15 K  AND     1.00 ATM

   This Molecule has  1 Imaginary Frequencies
   Zero point vibrational energy:       65.463 kcal/mol

   Atom    1 Element C  Has Mass   12.00000
   Atom    2 Element O  Has Mass   15.99491
   Atom    3 Element O  Has Mass   15.99491
   Atom    4 Element C  Has Mass   12.00000
   Atom    5 Element C  Has Mass   12.00000
   Atom    6 Element O  Has Mass   15.99491
   Atom    7 Element C  Has Mass   12.00000
   Atom    8 Element O  Has Mass   15.99491
   Atom    9 Element C  Has Mass   12.00000
   Atom   10 Element H  Has Mass    1.00783
   Atom   11 Element H  Has Mass    1.00783
   Atom   12 Element H  Has Mass    1.00783
   Atom   13 Element H  Has Mass    1.00783
   Atom   14 Element H  Has Mass    1.00783
   Atom   15 Element H  Has Mass    1.00783
   Molecular Mass:   130.026620 amu
   Principal axes and moments of inertia in amu*Bohr^2:
                             1           2           3
    Eigenvalues --      708.17387  1385.39566  1701.10130
          X               0.99895    -0.04573     0.00017
          Y               0.04573     0.99895     0.00070
          Z              -0.00020    -0.00069     1.00000
   Rotational Symmetry Number is   1
   The Molecule is an Asymmetric Top
   Translational Enthalpy:        0.889 kcal/mol
   Rotational Enthalpy:           0.889 kcal/mol
   Vibrational Enthalpy:         69.047 kcal/mol
   gas constant (RT):             0.592 kcal/mol
   Translational Entropy:        40.501  cal/mol.K
   Rotational Entropy:           28.902  cal/mol.K
   Vibrational Entropy:          20.160  cal/mol.K

   Total Enthalpy:               71.417 kcal/mol
   Total Entropy:                89.563  cal/mol.K
Archival summary:
1\1\bt2600-11\FREQ\ProcedureUnspecified\6-31+G*\456(2-,1)\emavera\TueJun621:41:042017TueJun621:41:042017\0\\#,FREQ,ProcedureUnspecified,6-31+G*,\\-2,1\O\C,1,1.22034\C,2,1.60108,1,119.486\O,3,1.33972,2,114.018,1,-0.876771,0\C,3,1.57754,2,106.253,1,-123.905,0\H,5,1.09709,3,113.618,2,-56.2739,0\H,5,1.10041,3,108.523,2,66.1452,0\H,5,1.1015,3,106.793,2,-178.297,0\C,3,1.57793,2,105.951,1,122.076,0\H,9,1.09693,3,113.516,2,56.3831,0\H,9,1.10045,3,108.538,2,-66.0095,0\H,9,1.10163,3,106.842,2,178.455,0\C,2,1.62087,1,117.364,3,179.781,0\O,13,1.25918,2,115.392,1,1.62503,0\O,13,1.26587,2,117.318,1,-178.329,0\\\@

 Total job time:  2969.94s(wall), 2970.39s(cpu) 
 Tue Jun  6 21:41:04 2017

        *************************************************************
        *                                                           *
        *  Thank you very much for using Q-Chem.  Have a nice day.  *
        *                                                           *
        *************************************************************


0 sent ACK to 0 
now end server 0 ... 
cleanup process ... done
