
Running Job 1 of 3 ts_no_solvent.qcin
qchem ts_no_solvent.qcin_47709.0 /tmp/ts_no_solvent.qcin/ 1
/programs/x86_64/lib/qchem-4.3.2/bin/mpi/mpirun_qchem -machinefile /var/spool/torque/aux//114843.vali -np 1 /programs/x86_64/lib/qchem-4.3.2/exe/qcprog.exe ts_no_solvent.qcin_47709.0 /tmp/ts_no_solvent.qcin/

Process 0 of 1 is on bt2600-16.csail.mit.edu - thread support 0
initial socket setup ...start
initial socket setup ...done 
now start server 0 ... 

cmd = ssh thor /programs/x86_64/lib/qchem-4.3.2/bin/get_hostid 1199097682 > /tmp/ts_no_solvent.qcin/lic.dat
                  Welcome to Q-Chem
     A Quantum Leap Into The Future Of Chemistry


 Q-Chem 4.3, Q-Chem, Inc., Pleasanton, CA (2015)

 Y. Shao,  Z. Gan,  E. Epifanovsky,  A. T. B. Gilbert,  M. Wormit,  
 J. Kussmann,  A. W. Lange,  A. Behn,  J. Deng,  X. Feng,  D. Ghosh,  
 M. Goldey,  P. R. Horn,  L. D. Jacobson,  I. Kaliman,  R. Z. Khaliullin,  
 T. Kus,  A. Landau,  J. Liu,  E. I. Proynov,  Y. M. Rhee,  R. M. Richard,  
 M. A. Rohrdanz,  R. P. Steele,  E. J. Sundstrom,  H. L. Woodcock III,  
 P. M. Zimmerman,  D. Zuev,  B. Albrecht,  E. Alguire,  B. Austin,  
 S. A. Baeppler,  G. J. O. Beran,  Y. A. Bernard,  E. Berquist,  
 K. Brandhorst,  K. B. Bravaya,  S. T. Brown,  D. Casanova,  C.-M. Chang,  
 Y. Chen,  S. H. Chien,  K. D. Closser,  D. L. Crittenden,  M. Diedenhofen,  
 R. A. DiStasio Jr.,  H. Do,  A. D. Dutoi,  R. G. Edgar,  P.-T. Fang,  
 S. Fatehi,  Q. Feng,  L. Fusti-Molnar,  A. Ghysels,  
 A. Golubeva-Zadorozhnaya,  J. Gomes,  A. Gunina,  M. W. D. Hanson-Heine,  
 P. H. P. Harbach,  A. W. Hauser,  E. G. Hohenstein,  Z. C. Holden,  K. Hui,  
 T.-C. Jagau,  H. Ji,  B. Kaduk,  K. Khistyaev,  Jaehoon Kim,  Jihan Kim,  
 R. A. King,  P. Klunzinger,  D. Kosenkov,  T. Kowalczyk,  C. M. Krauter,  
 K. U. Lao,  A. Laurent,  K. V. Lawler,  S. Lehtola,  S. V. Levchenko,  
 C. Y. Lin,  Y.-S. Lin,  F. Liu,  E. Livshits,  R. C. Lochan,  A. Luenser,  
 P. Manohar,  S. F. Manzer,  S.-P. Mao,  N. Mardirossian,  A. V. Marenich,  
 L. A. Martinez-Martinez,  S. A. Maurer,  N. J. Mayhall,  K. Nanda,  
 C. M. Oana,  R. Olivares-Amaya,  D. P. O'Neill,  J. A. Parkhill,  
 T. M. Perrine,  R. Peverati,  P. A. Pieniazek,  F. Plasser,  A. Prociuk,  
 D. R. Rehn,  E. Rosta,  N. J. Russ,  N. Sergueev,  S. M. Sharada,  
 S. Sharma,  D. W. Small,  A. Sodt,  T. Stauch,  T. Stein,  D. Stuck,  
 Y.-C. Su,  A. J. W. Thom,  T. Tsuchimochi,  L. Vogt,  O. Vydrov,  T. Wang,  
 M. A. Watson,  J. Wenzel,  A. White,  C. F. Williams,  V. Vanovschi,  
 S. Yeganeh,  S. R. Yost,  Z.-Q. You,  I. Y. Zhang,  X. Zhang,  Y. Zhao,  
 B. R. Brooks,  G. K. L. Chan,  D. M. Chipman,  C. J. Cramer,  
 W. A. Goddard III,  M. S. Gordon,  W. J. Hehre,  A. Klamt,  
 H. F. Schaefer III,  M. W. Schmidt,  C. D. Sherrill,  D. G. Truhlar,  
 A. Warshel,  X. Xu,  A. Aspuru-Guzik,  R. Baer,  A. T. Bell,  N. A. Besley,  
 J.-D. Chai,  A. Dreuw,  B. D. Dunietz,  T. R. Furlani,  S. R. Gwaltney,  
 C.-P. Hsu,  Y. Jung,  J. Kong,  D. S. Lambrecht,  W. Liang,  C. Ochsenfeld,  
 V. A. Rassolov,  L. V. Slipchenko,  J. E. Subotnik,  T. Van Voorhis,  
 J. M. Herbert,  A. I. Krylov,  P. M. W. Gill,  M. Head-Gordon

 Contributors to earlier versions of Q-Chem not listed above: 
 R. D. Adamson,  J. Baker,  E. F. C. Byrd,  A. K. Chakraborty,  C.-L. Cheng,  
 H. Dachsel,  R. J. Doerksen,  G. Hawkins,  A. Heyden,  S. Hirata,  
 G. Kedziora,  F. J. Keil,  C. Kelley,  P. P. Korambath,  W. Kurlancheek,  
 A. M. Lee,  M. S. Lee,  D. Liotard,  I. Lotan,  P. E. Maslen,  N. Nair,  
 D. Neuhauser,  R. Olson,  B. Peters,  J. Ritchie,  N. E. Schultz,  
 N. Shenvi,  A. C. Simmonett,  K. S. Thanthiriwatte,  Q. Wu,  W. Zhang

 Please cite Q-Chem as follows:
 Y. Shao et al., Mol. Phys. 113, 184-215 (2015)
 DOI: 10.1080/00268976.2014.952696

 Q-Chem 4.3.0 for Intel X86 Linux

 Parts of Q-Chem use Armadillo 5.200.1 (Boston Tea Smuggler).
 http://arma.sourceforge.net/

 Q-Chem begins on Mon May  8 12:51:48 2017  

Host: 
0

     Scratch files written to /tmp/ts_no_solvent.qcin//
 Oct1215 13750_ 19228  19214 4150   
 Parallel job on  1  processors
Processing $rem in /programs/x86_64/lib/qchem-4.3.2/config/preferences.
 MEM_TOTAL  2000 

Checking the input file for inconsistencies... 	...done.

--------------------------------------------------------------
User input:
--------------------------------------------------------------
$comment
Title
$end

$molecule
-2 1
C         1.887        -0.045          0.569
O         2.441         0.530         -0.396
O         2.389        -0.135          1.731
C         0.469        -0.816          0.588
O        -0.070        -0.786         -1.399
C         0.491        -1.927          1.187
O        -0.879        -0.161          0.518
C        -1.915        -0.795          0.879
H        -1.081         1.360          0.349
H        -0.825         1.763         -0.636
H        -0.492         1.910          1.097
C        -2.151         1.530          0.543
H        -0.567        -1.749         -1.512
H         0.941        -0.774         -1.812
H        -0.656        -0.010         -1.924
$end

$rem
JOBTYPE FREQ
EXCHANGE b3lyp
BASIS 6-31+G(d)
GUI=2
$end

--------------------------------------------------------------
 ----------------------------------------------------------------
             Standard Nuclear Orientation (Angstroms)
    I     Atom           X                Y                Z
 ----------------------------------------------------------------
    1      C       1.5755726512    -0.0674276096     0.2999052130
    2      O       1.9855969083     0.9983217312     0.8145161836
    3      O       2.1930195104    -1.1743778373     0.3612938880
    4      C       0.2329177805    -0.3038470424    -0.5643341925
    5      O      -0.4960317343     1.6108603524    -0.7695613768
    6      C       0.4022520438    -0.9962682947    -1.6062001707
    7      O      -1.1639988875    -0.3146314756    -0.0170348970
    8      C      -2.1057351756    -0.8376025862    -0.6842732211
    9      H      -1.5034900622    -0.0293238679     1.4615290384
   10      H      -1.3771429065     1.0095927416     1.7822449172
   11      H      -0.8913637274    -0.6587737008     2.1233592719
   12      C      -2.5599801017    -0.3170061611     1.5733489593
   13      H      -0.9222510922     1.5832428266    -1.7719192626
   14      H       0.4660944857     2.1259354585    -0.7266105697
   15      H      -1.1906962627     2.1408545395    -0.0929933059
 ----------------------------------------------------------------
 Molecular Point Group                 C1    NOp =  1
 Largest Abelian Subgroup              C1    NOp =  1
 Nuclear Repulsion Energy =   438.0573087495 hartrees
 There are       35 alpha and       35 beta electrons
 Requested basis set is 6-31+G(d)
 There are 57 shells and 183 basis functions

 Total QAlloc Memory Limit   2000 MB
 Mega-Array Size        61 MB
 MEM_STATIC part        62 MB

                       Distance Matrix (Angstroms)
             C (  1)   O (  2)   O (  3)   C (  4)   O (  5)   C (  6)
   O (  2)  1.252504
   O (  3)  1.268995  2.229138
   C (  4)  1.614164  2.582393  2.335939
   O (  5)  2.872621  3.007156  4.033284  2.059026
   C (  6)  2.423358  3.513579  2.666384  1.262381  2.881666
   O (  7)  2.768901  3.512161  3.485953  1.500343  2.172555  2.333070
   C (  8)  3.887648  4.728212  4.436882  2.401786  2.931448  2.676775
   H (  9)  3.291117  3.694375  4.023164  2.682275  2.946683  3.738689
   H ( 10)  3.475030  3.499235  4.419829  3.134303  2.765790  4.321028
   H ( 11)  3.124172  3.568745  3.589449  2.934907  3.698177  3.961939
   C ( 12)  4.334368  4.792513  4.979475  3.517121  3.669575  4.398380
   H ( 13)  3.640919  3.935398  4.675466  2.520672  1.089563  2.904419
   H ( 14)  2.663741  2.440384  3.880448  2.446334  1.092169  3.244366
   H ( 15)  3.561337  3.495396  4.758852  2.867997  1.105078  3.829989
             O (  7)   C (  8)   H (  9)   H ( 10)   H ( 11)   C ( 12)
   C (  8)  1.267112
   H (  9)  1.543634  2.370755
   H ( 10)  2.244194  3.166495  1.094610
   H ( 11)  2.184960  3.064226  1.099511  1.770815
   C ( 12)  2.116150  2.360978  1.100653  1.789583  1.789859
   H ( 13)  2.596149  2.905874  3.659699  3.628785  4.494529  4.181378
   H ( 14)  3.019448  3.924112  3.648611  3.307280  4.209469  4.518286
   H ( 15)  2.456806  3.171453  2.687760  2.197961  3.583258  3.269972
             H ( 13)   H ( 14)
   H ( 14)  1.820629
   H ( 15)  1.789354  1.773880
 
 A cutoff of  1.0D-11 yielded   1525 shell pairs
 There are     16282 function pairs
 
 -------------------------------------------------------
 OpenMP Integral Computing Module                       
 Release: version 1.0, May 2013, Q-Chem Inc. Pittsburgh 
 -------------------------------------------------------
 Integral Job Info:
 Integral job number is                      11
 Integral operator is                         1
 short-range coefficients                     0
 long-range coefficients              100000000
 Omega coefficients                           0
 if combine SR and LR in K                    0
 Integral screening is                        0
 Integral computing path is                   2
 max size of driver memory is            800000
 size of driver memory is                593474
 size of scratch memory is              2260544
 max col of scratch BK array               1296
 max len of scratch array in speh3          155
 max len of scratch index in speh4           18
 max int batch size is                      520
 min int batch size is                       52
 fixed nKL is                                52
 max L of basis functions is                  2
 order of int derivative is                   0
 number of shells is                         57
 number of basis is                         183
 number of cartesian basis is               183
 number of contracted shell pairs          1525
 number of primitive shell pairs           5216
 maxK2 (contraction) of shell pair           36
 max number of K2 of shell pair               1
 max number of CS2 of shell pair            182
 max number of PS2 of shell pair           1092
 mem total for path MDJ                   43170
 -------------------------------------------------------
 Smallest overlap matrix eigenvalue = 1.76E-05
 Guess from superposition of atomic densities
 Warning:  Energy on first SCF cycle will be non-variational
 A restricted hybrid HF-DFT SCF calculation will be
 performed using Pulay DIIS extrapolation
 Exchange:     0.2000 Hartree-Fock + 0.0800 Slater + 0.7200 B88
 Correlation:  0.1900 VWN1RPA + 0.8100 LYP
 Using SG-1 standard quadrature grid
 SCF converges when DIIS error is below 1.0E-08
 CPU 0.00 s  wall 0.00 s
 Inaccurate integrated density:
   Number of electrons =    70
   Numerical integral  =    68.000072485876
   Relative error      =    -2.8570393059 %
 CPU 4.89 s  wall 4.89 s
 ---------------------------------------
  Cycle       Energy         DIIS Error
 ---------------------------------------
    1    -495.5393519313      4.63E-02
 CPU 0.00 s  wall 0.00 s
 CPU 5.36 s  wall 5.36 s
    2    -493.3409396161      1.16E-02
 CPU 0.00 s  wall 0.00 s
 CPU 5.39 s  wall 5.39 s
    3    -480.3028127383      3.93E-02
 CPU 0.00 s  wall 0.00 s
 CPU 5.37 s  wall 5.37 s
    4    -493.1622861745      1.34E-02
 CPU 0.00 s  wall 0.00 s
 CPU 5.37 s  wall 5.37 s
    5    -493.7580618266      8.05E-03
 CPU 0.00 s  wall 0.00 s
 CPU 5.37 s  wall 5.37 s
    6    -493.7759438043      7.06E-03
 CPU 0.00 s  wall 0.00 s
 CPU 5.34 s  wall 5.34 s
    7    -494.0806094265      3.01E-03
 CPU 0.00 s  wall 0.00 s
 CPU 5.35 s  wall 5.35 s
    8    -494.0446393352      3.75E-03
 CPU 0.00 s  wall 0.00 s
 CPU 5.34 s  wall 5.34 s
    9    -494.1160321167      2.22E-03
 CPU 0.00 s  wall 0.00 s
 CPU 5.31 s  wall 5.31 s
   10    -494.1437902146      5.06E-04
 CPU 0.00 s  wall 0.00 s
 CPU 5.26 s  wall 5.26 s
   11    -494.1452384128      2.90E-04
 CPU 0.00 s  wall 0.00 s
 CPU 5.22 s  wall 5.22 s
   12    -494.1456111437      1.07E-04
 CPU 0.00 s  wall 0.00 s
 CPU 5.18 s  wall 5.18 s
   13    -494.1456726200      5.30E-05
 CPU 0.00 s  wall 0.00 s
 CPU 5.16 s  wall 5.16 s
   14    -494.1456893983      4.98E-05
 CPU 0.00 s  wall 0.00 s
 CPU 5.16 s  wall 5.16 s
   15    -494.1457040917      3.78E-05
 CPU 0.00 s  wall 0.00 s
 CPU 5.18 s  wall 5.18 s
   16    -494.1457170973      2.85E-05
 CPU 0.00 s  wall 0.00 s
 CPU 5.11 s  wall 5.11 s
   17    -494.1457224541      1.68E-05
 CPU 0.00 s  wall 0.00 s
 CPU 5.11 s  wall 5.11 s
   18    -494.1457243911      1.07E-05
 CPU 0.00 s  wall 0.00 s
 CPU 5.09 s  wall 5.09 s
   19    -494.1457255823      4.07E-06
 CPU 0.00 s  wall 0.00 s
 CPU 5.04 s  wall 5.04 s
   20    -494.1457257922      2.43E-06
 CPU 0.00 s  wall 0.00 s
 CPU 5.00 s  wall 5.00 s
   21    -494.1457258519      1.00E-06
 CPU 0.00 s  wall 0.00 s
 CPU 4.89 s  wall 4.89 s
   22    -494.1457258612      3.48E-07
 CPU 0.00 s  wall 0.00 s
 CPU 4.92 s  wall 4.92 s
   23    -494.1457258668      3.70E-07
 CPU 0.00 s  wall 0.00 s
 CPU 4.93 s  wall 4.93 s
   24    -494.1457258716      1.20E-07
 CPU 0.00 s  wall 0.00 s
 CPU 4.82 s  wall 4.82 s
   25    -494.1457258709      6.67E-08
 CPU 0.00 s  wall 0.00 s
 CPU 4.70 s  wall 4.70 s
   26    -494.1457258707      1.82E-08
 CPU 0.00 s  wall 0.00 s
 CPU 4.48 s  wall 4.48 s
   27    -494.1457258697      8.28E-09 Convergence criterion met
 ---------------------------------------
 SCF time:  CPU 323.05 s  wall 321.61 s
 SCF   energy in the final basis set = -494.1457258697
 Total energy in the final basis set = -494.1457258697
 
 --------------------------------------------------------------
 
                    Orbital Energies (a.u.)
 --------------------------------------------------------------
 
 Alpha MOs
 -- Occupied --
-19.043 -19.003 -18.845 -18.819 -10.024 -10.017  -9.943  -9.942
 -9.918  -0.889  -0.856  -0.759  -0.666  -0.514  -0.413  -0.384
 -0.360  -0.340  -0.276  -0.253  -0.198  -0.172  -0.156  -0.132
 -0.120  -0.098  -0.061  -0.022   0.000   0.013   0.021   0.043
  0.057   0.105   0.125
 -- Virtual --
  0.166   0.178   0.187   0.245   0.247   0.249   0.261   0.263
  0.268   0.279   0.284   0.293   0.299   0.313   0.317   0.327
  0.331   0.336   0.338   0.342   0.355   0.370   0.376   0.385
  0.394   0.414   0.419   0.423   0.445   0.453   0.469   0.476
  0.488   0.505   0.519   0.538   0.551   0.559   0.565   0.576
  0.581   0.588   0.594   0.607   0.623   0.649   0.655   0.701
  0.721   0.746   0.764   0.802   0.937   0.952   0.971   0.996
  1.009   1.014   1.039   1.044   1.051   1.060   1.080   1.111
  1.137   1.146   1.172   1.196   1.215   1.224   1.259   1.279
  1.292   1.355   1.389   1.399   1.431   1.442   1.479   1.494
  1.529   1.554   1.569   1.582   1.605   1.619   1.628   1.635
  1.667   1.695   1.714   1.766   1.794   1.799   1.816   1.861
  1.891   1.941   1.964   1.979   1.988   2.018   2.034   2.047
  2.078   2.091   2.126   2.139   2.148   2.163   2.181   2.208
  2.259   2.269   2.294   2.336   2.392   2.402   2.456   2.506
  2.548   2.593   2.608   2.632   2.648   2.690   2.700   2.710
  2.769   2.867   2.966   2.983   3.053   3.132   3.206   3.315
  3.352   3.400   3.453   4.323   4.442   4.469   4.557   4.590
  4.644   4.701   4.751   4.963
 --------------------------------------------------------------
 
          Ground-State Mulliken Net Atomic Charges

     Atom                 Charge (a.u.)
  ----------------------------------------
      1 C                     0.260924
      2 O                    -0.466126
      3 O                    -0.558781
      4 C                    -1.538876
      5 O                    -0.224852
      6 C                    -0.518920
      7 O                     0.398760
      8 C                    -0.096446
      9 H                    -0.005343
     10 H                     0.046461
     11 H                     0.018765
     12 C                    -0.523869
     13 H                     0.386577
     14 H                     0.430073
     15 H                     0.391655
  ----------------------------------------
  Sum of atomic charges =    -2.000000

 -----------------------------------------------------------------
                    Cartesian Multipole Moments
 -----------------------------------------------------------------
    Charge (ESU x 10^10)
                -9.6064
    Dipole Moment (Debye)
         X       1.9564      Y       4.4155      Z      -6.4546
       Tot       8.0614
    Quadrupole Moments (Debye-Ang)
        XX    -121.2164     XY       1.1278     YY     -81.9704
        XZ      11.4981     YZ      -8.1146     ZZ     -99.7000
    Octopole Moments (Debye-Ang^2)
       XXX      92.0606    XXY      17.5597    XYY      11.1772
       YYY      10.0259    XXZ     -63.4621    XYZ      -4.5130
       YYZ      -7.6289    XZZ      52.5739    YZZ      18.5180
       ZZZ     -35.2825
    Hexadecapole Moments (Debye-Ang^3)
      XXXX   -1624.8844   XXXY     -13.4963   XXYY    -346.8534
      XYYY      16.6576   YYYY    -537.6923   XXXZ     161.6061
      XXYZ      -6.3933   XYYZ      21.7798   YYYZ     -26.8613
      XXZZ    -441.8560   XYZZ     -13.6434   YYZZ    -230.9817
      XZZZ     170.8683   YZZZ     -32.0018   ZZZZ    -794.7664
 -----------------------------------------------------------------
 Calculating MO derivatives via CPSCF
 CPU 0.00 s  wall 0.00 s
 CPU 201.98 s  wall 201.98 s
 CPU 0.00 s  wall 0.00 s
 CPU 167.35 s  wall 167.35 s
 CPU 0.00 s  wall 0.00 s
 CPU 201.06 s  wall 201.06 s
   1         3          45      0.780951    0.174754
 CPU 0.00 s  wall 0.00 s
 CPU 202.23 s  wall 202.23 s
   2         3          45      0.105368    0.025448
 CPU 0.00 s  wall 0.00 s
 CPU 202.34 s  wall 202.34 s
   3         3          45      0.016118    0.004733
 CPU 0.00 s  wall 0.00 s
 CPU 202.18 s  wall 202.18 s
   4         3          45      0.001239    0.000323
 CPU 0.00 s  wall 0.00 s
 CPU 201.80 s  wall 201.80 s
   5        37          11      0.000060    0.000019
 CPU 0.00 s  wall 0.00 s
 CPU 52.23 s  wall 52.23 s
   6        48           0      0.000000    0.000000    Roots Converged
 CPU 0.00 s  wall 0.00 s
 CPU 212.62 s  wall 212.62 s
 Calculating analytic Hessian of the SCF energy
 Polarizability Matrix (a.u.)
            1           2           3
    1-246.8012180 -12.3912212  43.7997931
    2 -12.3912212-211.0365047  29.5074439
    3  43.7997931  29.5074439-267.1772189
 CPU 0.00 s  wall 0.00 s
 CPU 227.48 s  wall 227.48 s
 
 Direct stationary perturbation theory relativistic correction:
 
 rels  =       0.159948954711
 relv  =      -0.762073550993
 rel2e =       0.329112342637
 E_rel =      -0.273012253644
 
 Hessian of the SCF Energy
            1           2           3           4           5           6
    1   0.3050989  -0.0231667   0.0641472  -0.1203937  -0.1140195  -0.0634080
    2  -0.0231667   0.7919144   0.1403017  -0.1253118  -0.3771503  -0.1597941
    3   0.0641472   0.1403017   0.2849778  -0.0640122  -0.1450877  -0.1479519
    4  -0.1203937  -0.1253118  -0.0640122   0.1129250   0.1271008   0.0826673
    5  -0.1140195  -0.3771503  -0.1450877   0.1271008   0.4994850   0.2045654
    6  -0.0634080  -0.1597941  -0.1479519   0.0826673   0.2045654   0.1286415
    7  -0.1693623   0.1655464  -0.0099076   0.0309109   0.0073057   0.0020510
    8   0.1454451  -0.3505811   0.0134645   0.0216809  -0.1218225  -0.0251924
    9  -0.0247163   0.0345971  -0.0791343   0.0072775  -0.0416755   0.0238948
   10   0.0070080   0.0026178   0.0152890  -0.0296113  -0.0350395  -0.0263860
   11   0.0040819  -0.0723939   0.0025664  -0.0243499  -0.0032765  -0.0199981
   12   0.0412583  -0.0341392  -0.0617910  -0.0268047  -0.0080538  -0.0059006
   13  -0.0055882   0.0043767  -0.0013245  -0.0014900   0.0009400  -0.0022217
   14   0.0044304   0.0013017  -0.0028091  -0.0023005  -0.0030647  -0.0001748
   15  -0.0054234  -0.0007626  -0.0035613  -0.0024416   0.0046435  -0.0017161
   16  -0.0010092  -0.0067457  -0.0099512  -0.0007921   0.0033055   0.0017175
   17  -0.0106110   0.0225748  -0.0131568   0.0005236  -0.0082481   0.0023699
   18  -0.0093700  -0.0033327  -0.0135917  -0.0007353   0.0008296   0.0019893
   19  -0.0396552  -0.0341387  -0.0099284   0.0153069   0.0297423   0.0049470
   20  -0.0055465  -0.0046732   0.0103425   0.0055749   0.0068692   0.0005278
   21   0.0002364   0.0007243   0.0310129   0.0029960  -0.0054016  -0.0059808
   22  -0.0015933   0.0059625   0.0039847  -0.0006278  -0.0021958   0.0004496
   23  -0.0017030   0.0056664  -0.0062309  -0.0016188  -0.0014649   0.0008627
   24  -0.0036482   0.0051307  -0.0158605  -0.0021167   0.0021920   0.0034651
   25   0.0048667  -0.0102405   0.0042825   0.0011171   0.0038896  -0.0042724
   26  -0.0000976  -0.0012422  -0.0006142   0.0004947   0.0015770  -0.0009243
   27   0.0011712  -0.0007082  -0.0007959  -0.0001130   0.0008194  -0.0004422
   28   0.0022289  -0.0001751   0.0006306  -0.0016008  -0.0012199   0.0014315
   29   0.0012851   0.0001729  -0.0000936  -0.0009686  -0.0007909   0.0013924
   30   0.0025404   0.0030976   0.0016149  -0.0005750  -0.0035339  -0.0003539
   31   0.0005777   0.0051782  -0.0020447  -0.0002369  -0.0039819   0.0017002
   32   0.0025887  -0.0006404   0.0018724  -0.0009109  -0.0012850  -0.0003422
   33   0.0012233   0.0035843   0.0004282  -0.0006431  -0.0030225   0.0005557
   34   0.0102887   0.0089169   0.0036538  -0.0047868  -0.0089331  -0.0019615
   35   0.0006320   0.0037540   0.0002763  -0.0006824  -0.0028211  -0.0004547
   36  -0.0132749  -0.0011935  -0.0041008   0.0031725   0.0063136   0.0020641
   37   0.0021085   0.0003305   0.0005196  -0.0002409  -0.0017163   0.0007331
   38   0.0006313  -0.0003943   0.0018239   0.0001285   0.0004106  -0.0002599
   39   0.0057857   0.0046134   0.0038099   0.0009456  -0.0058717   0.0009370
   40   0.0047177   0.0047372   0.0043300  -0.0001670  -0.0031742   0.0020175
   41  -0.0025486  -0.0151010  -0.0017560   0.0001567   0.0089282  -0.0026200
   42   0.0041635   0.0101612   0.0050776   0.0005659  -0.0084977   0.0006769
   43   0.0007068   0.0021122   0.0003311  -0.0003127  -0.0020037   0.0005347
   44  -0.0014016  -0.0032078  -0.0008993   0.0004828   0.0026540   0.0000422
   45  -0.0006854  -0.0022800  -0.0001339  -0.0001833   0.0017809   0.0001210
            7           8           9          10          11          12
    1  -0.1693623   0.1454451  -0.0247163   0.0070080   0.0040819   0.0412583
    2   0.1655464  -0.3505811   0.0345971   0.0026178  -0.0723939  -0.0341392
    3  -0.0099076   0.0134645  -0.0791343   0.0152890   0.0025664  -0.0617910
    4   0.0309109   0.0216809   0.0072775  -0.0296113  -0.0243499  -0.0268047
    5   0.0073057  -0.1218225  -0.0416755  -0.0350395  -0.0032765  -0.0080538
    6   0.0020510  -0.0251924   0.0238948  -0.0263860  -0.0199981  -0.0059006
    7   0.1950015  -0.2041180   0.0475285  -0.0541890   0.0302461  -0.0320504
    8  -0.2041180   0.4692706  -0.0056873   0.0307441   0.0039037   0.0241884
    9   0.0475285  -0.0056873   0.0501876  -0.0358982   0.0158249   0.0223423
   10  -0.0541890   0.0307441  -0.0358982   0.0211744  -0.0616345  -0.0086282
   11   0.0302461   0.0039037   0.0158249  -0.0616345   0.3405358   0.3656970
   12  -0.0320504   0.0241884   0.0223423  -0.0086282   0.3656970   0.5658583
   13   0.0002798   0.0005067   0.0005237  -0.0020989   0.0156373  -0.0066964
   14  -0.0012980  -0.0014191  -0.0007451   0.0159781  -0.0191640   0.0055730
   15  -0.0002648   0.0022291   0.0003766  -0.0016870   0.0047425  -0.0011345
   16  -0.0082776   0.0045744  -0.0048642   0.0170603   0.0527620   0.0855217
   17   0.0030684  -0.0066375  -0.0050375   0.0174917  -0.2132940  -0.3316049
   18  -0.0049272  -0.0035743  -0.0058684   0.0580368  -0.3524963  -0.5262496
   19   0.0109432   0.0008758   0.0192505   0.2376398  -0.0151832  -0.1130070
   20   0.0013598   0.0010265   0.0047980   0.1003376  -0.0130799  -0.0796232
   21  -0.0009475  -0.0010901  -0.0088971   0.0816932  -0.0322409  -0.0767484
   22  -0.0019747   0.0032983  -0.0052437  -0.1443462  -0.0058443   0.0473049
   23  -0.0013586   0.0001781  -0.0024522  -0.0667375   0.0039437   0.0500744
   24  -0.0013972   0.0006433   0.0000635  -0.0653685   0.0153782   0.0702307
   25   0.0005136   0.0017660   0.0011057   0.0280038  -0.0106898  -0.0225697
   26  -0.0003852  -0.0002700  -0.0000120   0.0058512   0.0012155   0.0013479
   27  -0.0002891   0.0001383  -0.0006623   0.0012701   0.0023196   0.0050698
   28  -0.0001166  -0.0000101  -0.0005414  -0.0087573  -0.0035466   0.0057226
   29  -0.0003245   0.0002145  -0.0007273  -0.0084353  -0.0025668   0.0057405
   30  -0.0000073  -0.0010626  -0.0006046  -0.0134850   0.0014994   0.0013449
   31   0.0000157  -0.0030431   0.0016806  -0.0038831   0.0029520   0.0006275
   32  -0.0001753   0.0007338  -0.0008000  -0.0053480  -0.0014063   0.0006081
   33   0.0001640  -0.0014321  -0.0002380  -0.0096134  -0.0002491   0.0034031
   34  -0.0034035   0.0002226  -0.0046130  -0.0638323   0.0131588   0.0294967
   35  -0.0004011  -0.0007110  -0.0007572  -0.0145740   0.0135007  -0.0010876
   36   0.0013246   0.0021279   0.0011206   0.0132460   0.0012711  -0.0041770
   37  -0.0000148  -0.0001191  -0.0001663  -0.0096226  -0.0003717   0.0050208
   38  -0.0001305   0.0003677   0.0001356   0.0059313  -0.0096565   0.0006659
   39  -0.0007903  -0.0019829  -0.0010922  -0.0102174   0.0073235   0.0037731
   40  -0.0002458  -0.0009815  -0.0006354   0.0113996  -0.0081510  -0.0059614
   41   0.0004142   0.0042680   0.0020877   0.0114760  -0.0123089  -0.0034312
   42  -0.0006072  -0.0036492  -0.0018843  -0.0025193   0.0008643   0.0003448
   43  -0.0000805  -0.0008422  -0.0006881  -0.0059450   0.0109328   0.0007654
   44   0.0002506   0.0014782   0.0004508   0.0013410  -0.0159526   0.0040446
   45   0.0001205   0.0008794   0.0003957   0.0042678  -0.0125024   0.0036340
           13          14          15          16          17          18
    1  -0.0055882   0.0044304  -0.0054234  -0.0010092  -0.0106110  -0.0093700
    2   0.0043767   0.0013017  -0.0007626  -0.0067457   0.0225748  -0.0033327
    3  -0.0013245  -0.0028091  -0.0035613  -0.0099512  -0.0131568  -0.0135917
    4  -0.0014900  -0.0023005  -0.0024416  -0.0007921   0.0005236  -0.0007353
    5   0.0009400  -0.0030647   0.0046435   0.0033055  -0.0082481   0.0008296
    6  -0.0022217  -0.0001748  -0.0017161   0.0017175   0.0023699   0.0019893
    7   0.0002798  -0.0012980  -0.0002648  -0.0082776   0.0030684  -0.0049272
    8   0.0005067  -0.0014191   0.0022291   0.0045744  -0.0066375  -0.0035743
    9   0.0005237  -0.0007451   0.0003766  -0.0048642  -0.0050375  -0.0058684
   10  -0.0020989   0.0159781  -0.0016870   0.0170603   0.0174917   0.0580368
   11   0.0156373  -0.0191640   0.0047425   0.0527620  -0.2132940  -0.3524963
   12  -0.0066964   0.0055730  -0.0011345   0.0855217  -0.3316049  -0.5262496
   13   0.2644293   0.0476777  -0.0025277  -0.0039152   0.0030046   0.0003934
   14   0.0476777   0.2142240  -0.0122641   0.0020819  -0.0162491  -0.0012226
   15  -0.0025277  -0.0122641   0.1840368   0.0011572  -0.0093980  -0.0009103
   16  -0.0039152   0.0020819   0.0011572   0.0179379  -0.0592260  -0.0918147
   17   0.0030046  -0.0162491  -0.0093980  -0.0592260   0.2057072   0.3660455
   18   0.0003934  -0.0012226  -0.0009103  -0.0918147   0.3660455   0.5580766
   19  -0.0067642  -0.0407761   0.0125906  -0.0291713   0.0638415   0.0539640
   20  -0.0284502  -0.0624792   0.0242642   0.0077080   0.0138016   0.0132014
   21   0.0335246   0.0125845   0.0298626   0.0481986   0.0246758   0.0122724
   22  -0.0081955   0.0174793  -0.0146793  -0.0179047  -0.0217516  -0.0146319
   23  -0.0091495   0.0045565  -0.0044545  -0.0089495  -0.0087969  -0.0178140
   24  -0.0080922   0.0073494  -0.0122005  -0.0134099  -0.0251654  -0.0220453
   25   0.0108759  -0.0006069   0.0024070   0.0191363   0.0212052   0.0086656
   26   0.0003032  -0.0009455   0.0058130   0.0008442   0.0019807  -0.0017586
   27   0.0026681  -0.0039826  -0.0000468  -0.0030119  -0.0007140  -0.0021150
   28   0.0070919   0.0020094   0.0100297   0.0005926   0.0007507   0.0006077
   29   0.0032665   0.0023063   0.0125867  -0.0002737  -0.0004265  -0.0003428
   30   0.0063392   0.0010497  -0.0085963   0.0041416  -0.0013361   0.0018573
   31   0.0010060  -0.0037451   0.0047770  -0.0002217  -0.0026673   0.0018173
   32   0.0035450   0.0001486  -0.0003850   0.0022001   0.0011473   0.0010114
   33   0.0001843   0.0020190   0.0050857   0.0005329  -0.0027202   0.0008335
   34  -0.0058954   0.0015518  -0.0051797   0.0029134  -0.0167759  -0.0042037
   35  -0.0062720  -0.0024861  -0.0124427   0.0011894  -0.0070934   0.0003198
   36  -0.0159466   0.0036456  -0.0183489  -0.0176162  -0.0080957  -0.0063890
   37  -0.0726874   0.0076816   0.0028791   0.0000299   0.0001938   0.0011876
   38  -0.0000962  -0.0182236   0.0179387  -0.0005714   0.0064654  -0.0005394
   39  -0.0229003   0.0182293  -0.0813993   0.0014452   0.0011364   0.0025379
   40  -0.1042869  -0.0549103   0.0144202   0.0023548   0.0058756   0.0011672
   41  -0.0542970  -0.0608527  -0.0089043   0.0017900   0.0055880   0.0008742
   42   0.0168179  -0.0120214  -0.0699524   0.0003706  -0.0013143  -0.0000568
   43  -0.0727610   0.0047468  -0.0160574   0.0012666  -0.0049232  -0.0001568
   44   0.0190070  -0.0376531  -0.0236065  -0.0006895   0.0034805  -0.0012011
   45  -0.0007418  -0.0172307  -0.0214951  -0.0024174   0.0043154  -0.0003407
           19          20          21          22          23          24
    1  -0.0396552  -0.0055465   0.0002364  -0.0015933  -0.0017030  -0.0036482
    2  -0.0341387  -0.0046732   0.0007243   0.0059625   0.0056664   0.0051307
    3  -0.0099284   0.0103425   0.0310129   0.0039847  -0.0062309  -0.0158605
    4   0.0153069   0.0055749   0.0029960  -0.0006278  -0.0016188  -0.0021167
    5   0.0297423   0.0068692  -0.0054016  -0.0021958  -0.0014649   0.0021920
    6   0.0049470   0.0005278  -0.0059808   0.0004496   0.0008627   0.0034651
    7   0.0109432   0.0013598  -0.0009475  -0.0019747  -0.0013586  -0.0013972
    8   0.0008758   0.0010265  -0.0010901   0.0032983   0.0001781   0.0006433
    9   0.0192505   0.0047980  -0.0088971  -0.0052437  -0.0024522   0.0000635
   10   0.2376398   0.1003376   0.0816932  -0.1443462  -0.0667375  -0.0653685
   11  -0.0151832  -0.0130799  -0.0322409  -0.0058443   0.0039437   0.0153782
   12  -0.1130070  -0.0796232  -0.0767484   0.0473049   0.0500744   0.0702307
   13  -0.0067642  -0.0284502   0.0335246  -0.0081955  -0.0091495  -0.0080922
   14  -0.0407761  -0.0624792   0.0125845   0.0174793   0.0045565   0.0073494
   15   0.0125906   0.0242642   0.0298626  -0.0146793  -0.0044545  -0.0122005
   16  -0.0291713   0.0077080   0.0481986  -0.0179047  -0.0089495  -0.0134099
   17   0.0638415   0.0138016   0.0246758  -0.0217516  -0.0087969  -0.0251654
   18   0.0539640   0.0132014   0.0122724  -0.0146319  -0.0178140  -0.0220453
   19  -0.1170261   0.0136766  -0.0167119  -0.0939650  -0.0498644  -0.0801001
   20   0.0136766   0.0999807   0.0809692  -0.0913045  -0.0546902  -0.0601894
   21  -0.0167119   0.0809692   0.1699247  -0.1204219  -0.0521631  -0.0576245
   22  -0.0939650  -0.0913045  -0.1204219   0.2572140   0.1101777   0.1296549
   23  -0.0498644  -0.0546902  -0.0521631   0.1101777   0.0644344   0.0505476
   24  -0.0801001  -0.0601894  -0.0576245   0.1296549   0.0505476   0.0472935
   25  -0.0693940  -0.0187990  -0.0462491   0.0350405   0.0285117   0.0559909
   26  -0.0180720   0.0105057  -0.0163732   0.0098834  -0.0017587  -0.0053162
   27   0.0136918  -0.0098609  -0.0478862   0.0031210  -0.0106022  -0.0292548
   28   0.0224289   0.0031759  -0.0082945  -0.0025707   0.0069761  -0.0038527
   29   0.0196865  -0.0017446  -0.0084051  -0.0016078   0.0035568  -0.0061361
   30   0.0270503  -0.0113466  -0.0186112  -0.0081128   0.0018590   0.0131858
   31   0.0072433   0.0013238   0.0062924   0.0001925  -0.0075406  -0.0111085
   32   0.0130296  -0.0028728  -0.0122362  -0.0026880   0.0085413   0.0103205
   33   0.0150882   0.0085804  -0.0152077  -0.0063229   0.0024872  -0.0003163
   34   0.0563427   0.0094120   0.0479778  -0.0322686  -0.0079616  -0.0081220
   35   0.0225877   0.0032230   0.0128259  -0.0113691  -0.0160688   0.0068721
   36   0.0645797   0.0198527   0.0216784  -0.0308356  -0.0191085  -0.0083860
   37   0.0142574   0.0009267  -0.0183726   0.0067308   0.0021462   0.0066786
   38  -0.0008262   0.0000968  -0.0078674  -0.0004811  -0.0002603   0.0059322
   39   0.0026262  -0.0083736  -0.0385762   0.0182122   0.0102472   0.0228818
   40  -0.0142370   0.0034786  -0.0086527   0.0015847   0.0018122   0.0022244
   41  -0.0157967  -0.0024302  -0.0013728  -0.0002169   0.0011131   0.0010234
   42   0.0042083   0.0024367   0.0020758  -0.0015399  -0.0001395  -0.0015031
   43   0.0060508  -0.0028736  -0.0012688   0.0026839   0.0052596   0.0026670
   44   0.0112174   0.0064668   0.0053708  -0.0093421  -0.0089506  -0.0085822
   45   0.0017507   0.0044208   0.0027054  -0.0009395  -0.0031132  -0.0099294
           25          26          27          28          29          30
    1   0.0048667  -0.0000976   0.0011712   0.0022289   0.0012851   0.0025404
    2  -0.0102405  -0.0012422  -0.0007082  -0.0001751   0.0001729   0.0030976
    3   0.0042825  -0.0006142  -0.0007959   0.0006306  -0.0000936   0.0016149
    4   0.0011171   0.0004947  -0.0001130  -0.0016008  -0.0009686  -0.0005750
    5   0.0038896   0.0015770   0.0008194  -0.0012199  -0.0007909  -0.0035339
    6  -0.0042724  -0.0009243  -0.0004422   0.0014315   0.0013924  -0.0003539
    7   0.0005136  -0.0003852  -0.0002891  -0.0001166  -0.0003245  -0.0000073
    8   0.0017660  -0.0002700   0.0001383  -0.0000101   0.0002145  -0.0010626
    9   0.0011057  -0.0000120  -0.0006623  -0.0005414  -0.0007273  -0.0006046
   10   0.0280038   0.0058512   0.0012701  -0.0087573  -0.0084353  -0.0134850
   11  -0.0106898   0.0012155   0.0023196  -0.0035466  -0.0025668   0.0014994
   12  -0.0225697   0.0013479   0.0050698   0.0057226   0.0057405   0.0013449
   13   0.0108759   0.0003032   0.0026681   0.0070919   0.0032665   0.0063392
   14  -0.0006069  -0.0009455  -0.0039826   0.0020094   0.0023063   0.0010497
   15   0.0024070   0.0058130  -0.0000468   0.0100297   0.0125867  -0.0085963
   16   0.0191363   0.0008442  -0.0030119   0.0005926  -0.0002737   0.0041416
   17   0.0212052   0.0019807  -0.0007140   0.0007507  -0.0004265  -0.0013361
   18   0.0086656  -0.0017586  -0.0021150   0.0006077  -0.0003428   0.0018573
   19  -0.0693940  -0.0180720   0.0136918   0.0224289   0.0196865   0.0270503
   20  -0.0187990   0.0105057  -0.0098609   0.0031759  -0.0017446  -0.0113466
   21  -0.0462491  -0.0163732  -0.0478862  -0.0082945  -0.0084051  -0.0186112
   22   0.0350405   0.0098834   0.0031210  -0.0025707  -0.0016078  -0.0081128
   23   0.0285117  -0.0017587  -0.0106022   0.0069761   0.0035568   0.0018590
   24   0.0559909  -0.0053162  -0.0292548  -0.0038527  -0.0061361   0.0131858
   25   0.1523856   0.0457886  -0.0838033   0.0251280   0.0235212   0.0169130
   26   0.0457886  -0.0040182  -0.0053043  -0.0244237  -0.0330517  -0.0048584
   27  -0.0838033  -0.0053043   0.0373335   0.0002371  -0.0178033   0.0115741
   28   0.0251280  -0.0244237   0.0002371  -0.0411566  -0.0215146  -0.0083096
   29   0.0235212  -0.0330517  -0.0178033  -0.0215146   0.0347898   0.0150841
   30   0.0169130  -0.0048584   0.0115741  -0.0083096   0.0150841   0.0026050
   31   0.0050762   0.0383006  -0.0288102   0.0019772   0.0110524   0.0005588
   32   0.0031508  -0.0015816   0.0185397   0.0025370  -0.0151472   0.0003839
   33   0.0113296   0.0247025  -0.0038610  -0.0027384   0.0052683  -0.0011560
   34  -0.2039444  -0.0588599   0.0956359   0.0075550  -0.0192363  -0.0210174
   35  -0.0718273   0.0344422   0.0250314   0.0326984   0.0087207  -0.0002723
   36   0.0518542   0.0078757   0.0311315   0.0204516   0.0151352  -0.0094563
   37   0.0009067  -0.0006175   0.0005399  -0.0084557  -0.0078817  -0.0004227
   38  -0.0047925  -0.0004817   0.0013697  -0.0027399  -0.0015878  -0.0010660
   39  -0.0033461  -0.0009539   0.0002369  -0.0084327  -0.0086292  -0.0038694
   40  -0.0108344  -0.0024762  -0.0012623   0.0018624   0.0029763   0.0005943
   41  -0.0067220  -0.0011847   0.0000478   0.0012243   0.0018810   0.0006080
   42   0.0018338   0.0005388  -0.0001119  -0.0007263  -0.0004447  -0.0011691
   43   0.0011223   0.0034661  -0.0010455  -0.0062074  -0.0015455  -0.0062079
   44  -0.0041550  -0.0051867   0.0007095   0.0042582   0.0036735  -0.0001057
   45   0.0058583  -0.0041628  -0.0001695  -0.0062152  -0.0126250   0.0116349
           31          32          33          34          35          36
    1   0.0005777   0.0025887   0.0012233   0.0102887   0.0006320  -0.0132749
    2   0.0051782  -0.0006404   0.0035843   0.0089169   0.0037540  -0.0011935
    3  -0.0020447   0.0018724   0.0004282   0.0036538   0.0002763  -0.0041008
    4  -0.0002369  -0.0009109  -0.0006431  -0.0047868  -0.0006824   0.0031725
    5  -0.0039819  -0.0012850  -0.0030225  -0.0089331  -0.0028211   0.0063136
    6   0.0017002  -0.0003422   0.0005557  -0.0019615  -0.0004547   0.0020641
    7   0.0000157  -0.0001753   0.0001640  -0.0034035  -0.0004011   0.0013246
    8  -0.0030431   0.0007338  -0.0014321   0.0002226  -0.0007110   0.0021279
    9   0.0016806  -0.0008000  -0.0002380  -0.0046130  -0.0007572   0.0011206
   10  -0.0038831  -0.0053480  -0.0096134  -0.0638323  -0.0145740   0.0132460
   11   0.0029520  -0.0014063  -0.0002491   0.0131588   0.0135007   0.0012711
   12   0.0006275   0.0006081   0.0034031   0.0294967  -0.0010876  -0.0041770
   13   0.0010060   0.0035450   0.0001843  -0.0058954  -0.0062720  -0.0159466
   14  -0.0037451   0.0001486   0.0020190   0.0015518  -0.0024861   0.0036456
   15   0.0047770  -0.0003850   0.0050857  -0.0051797  -0.0124427  -0.0183489
   16  -0.0002217   0.0022001   0.0005329   0.0029134   0.0011894  -0.0176162
   17  -0.0026673   0.0011473  -0.0027202  -0.0167759  -0.0070934  -0.0080957
   18   0.0018173   0.0010114   0.0008335  -0.0042037   0.0003198  -0.0063890
   19   0.0072433   0.0130296   0.0150882   0.0563427   0.0225877   0.0645797
   20   0.0013238  -0.0028728   0.0085804   0.0094120   0.0032230   0.0198527
   21   0.0062924  -0.0122362  -0.0152077   0.0479778   0.0128259   0.0216784
   22   0.0001925  -0.0026880  -0.0063229  -0.0322686  -0.0113691  -0.0308356
   23  -0.0075406   0.0085413   0.0024872  -0.0079616  -0.0160688  -0.0191085
   24  -0.0111085   0.0103205  -0.0003163  -0.0081220   0.0068721  -0.0083860
   25   0.0050762   0.0031508   0.0113296  -0.2039444  -0.0718273   0.0518542
   26   0.0383006  -0.0015816   0.0247025  -0.0588599   0.0344422   0.0078757
   27  -0.0288102   0.0185397  -0.0038610   0.0956359   0.0250314   0.0311315
   28   0.0019772   0.0025370  -0.0027384   0.0075550   0.0326984   0.0204516
   29   0.0110524  -0.0151472   0.0052683  -0.0192363   0.0087207   0.0151352
   30   0.0005588   0.0003839  -0.0011560  -0.0210174  -0.0002723  -0.0094563
   31  -0.0225678  -0.0319816   0.0085059   0.0120697  -0.0136407   0.0234223
   32  -0.0319816   0.0260716  -0.0241574   0.0185818  -0.0143271   0.0055151
   33   0.0085059  -0.0241574   0.0228713  -0.0163963  -0.0157065  -0.0051551
   34   0.0120697   0.0185818  -0.0163963   0.2202053   0.0526712  -0.1184393
   35  -0.0136407  -0.0143271  -0.0157065   0.0526712  -0.0268262  -0.0306452
   36   0.0234223   0.0055151  -0.0051551  -0.1184393  -0.0306452  -0.0255835
   37  -0.0037805  -0.0017103  -0.0045559   0.0000677   0.0072652   0.0135238
   38   0.0011427  -0.0013613  -0.0014209   0.0029493   0.0045413   0.0038273
   39  -0.0064599  -0.0025824  -0.0055118   0.0016693   0.0071196   0.0208580
   40   0.0022996  -0.0001367   0.0023033   0.0063025   0.0029230   0.0024123
   41   0.0037704  -0.0001825   0.0019454   0.0051739   0.0021725  -0.0023766
   42  -0.0006128  -0.0001222  -0.0000455  -0.0013228  -0.0010788   0.0000285
   43   0.0002320  -0.0026821   0.0009384  -0.0016140  -0.0012002   0.0021257
   44   0.0028803   0.0021616   0.0001217  -0.0008715  -0.0000208  -0.0041448
   45  -0.0003459   0.0023742  -0.0016860   0.0028223   0.0099998   0.0047155
           37          38          39          40          41          42
    1   0.0021085   0.0006313   0.0057857   0.0047177  -0.0025486   0.0041635
    2   0.0003305  -0.0003943   0.0046134   0.0047372  -0.0151010   0.0101612
    3   0.0005196   0.0018239   0.0038099   0.0043300  -0.0017560   0.0050776
    4  -0.0002409   0.0001285   0.0009456  -0.0001670   0.0001567   0.0005659
    5  -0.0017163   0.0004106  -0.0058717  -0.0031742   0.0089282  -0.0084977
    6   0.0007331  -0.0002599   0.0009370   0.0020175  -0.0026200   0.0006769
    7  -0.0000148  -0.0001305  -0.0007903  -0.0002458   0.0004142  -0.0006072
    8  -0.0001191   0.0003677  -0.0019829  -0.0009815   0.0042680  -0.0036492
    9  -0.0001663   0.0001356  -0.0010922  -0.0006354   0.0020877  -0.0018843
   10  -0.0096226   0.0059313  -0.0102174   0.0113996   0.0114760  -0.0025193
   11  -0.0003717  -0.0096565   0.0073235  -0.0081510  -0.0123089   0.0008643
   12   0.0050208   0.0006659   0.0037731  -0.0059614  -0.0034312   0.0003448
   13  -0.0726874  -0.0000962  -0.0229003  -0.1042869  -0.0542970   0.0168179
   14   0.0076816  -0.0182236   0.0182293  -0.0549103  -0.0608527  -0.0120214
   15   0.0028791   0.0179387  -0.0813993   0.0144202  -0.0089043  -0.0699524
   16   0.0000299  -0.0005714   0.0014452   0.0023548   0.0017900   0.0003706
   17   0.0001938   0.0064654   0.0011364   0.0058756   0.0055880  -0.0013143
   18   0.0011876  -0.0005394   0.0025379   0.0011672   0.0008742  -0.0000568
   19   0.0142574  -0.0008262   0.0026262  -0.0142370  -0.0157967   0.0042083
   20   0.0009267   0.0000968  -0.0083736   0.0034786  -0.0024302   0.0024367
   21  -0.0183726  -0.0078674  -0.0385762  -0.0086527  -0.0013728   0.0020758
   22   0.0067308  -0.0004811   0.0182122   0.0015847  -0.0002169  -0.0015399
   23   0.0021462  -0.0002603   0.0102472   0.0018122   0.0011131  -0.0001395
   24   0.0066786   0.0059322   0.0228818   0.0022244   0.0010234  -0.0015031
   25   0.0009067  -0.0047925  -0.0033461  -0.0108344  -0.0067220   0.0018338
   26  -0.0006175  -0.0004817  -0.0009539  -0.0024762  -0.0011847   0.0005388
   27   0.0005399   0.0013697   0.0002369  -0.0012623   0.0000478  -0.0001119
   28  -0.0084557  -0.0027399  -0.0084327   0.0018624   0.0012243  -0.0007263
   29  -0.0078817  -0.0015878  -0.0086292   0.0029763   0.0018810  -0.0004447
   30  -0.0004227  -0.0010660  -0.0038694   0.0005943   0.0006080  -0.0011691
   31  -0.0037805   0.0011427  -0.0064599   0.0022996   0.0037704  -0.0006128
   32  -0.0017103  -0.0013613  -0.0025824  -0.0001367  -0.0001825  -0.0001222
   33  -0.0045559  -0.0014209  -0.0055118   0.0023033   0.0019454  -0.0000455
   34   0.0000677   0.0029493   0.0016693   0.0063025   0.0051739  -0.0013228
   35   0.0072652   0.0045413   0.0071196   0.0029230   0.0021725  -0.0010788
   36   0.0135238   0.0038273   0.0208580   0.0024123  -0.0023766   0.0000285
   37   0.0441521   0.0028410   0.0150485  -0.0005860   0.0045459  -0.0143187
   38   0.0028410   0.0243338  -0.0021012   0.0000189  -0.0021756  -0.0099297
   39   0.0150485  -0.0021012   0.0882078  -0.0175477  -0.0062211   0.0120444
   40  -0.0005860   0.0000189  -0.0175477   0.1143357   0.0447756  -0.0107638
   41   0.0045459  -0.0021756  -0.0062211   0.0447756   0.0585310   0.0084575
   42  -0.0143187  -0.0099297   0.0120444  -0.0107638   0.0084575   0.0443697
   43   0.0271347  -0.0040053   0.0239618  -0.0145000   0.0062542   0.0044508
   44  -0.0135142  -0.0020745  -0.0119534   0.0032326   0.0117539   0.0147392
   45  -0.0082948  -0.0085087  -0.0248378   0.0153540   0.0116380   0.0101053
           43          44          45
    1   0.0007068  -0.0014016  -0.0006854
    2   0.0021122  -0.0032078  -0.0022800
    3   0.0003311  -0.0008993  -0.0001339
    4  -0.0003127   0.0004828  -0.0001833
    5  -0.0020037   0.0026540   0.0017809
    6   0.0005347   0.0000422   0.0001210
    7  -0.0000805   0.0002506   0.0001205
    8  -0.0008422   0.0014782   0.0008794
    9  -0.0006881   0.0004508   0.0003957
   10  -0.0059450   0.0013410   0.0042678
   11   0.0109328  -0.0159526  -0.0125024
   12   0.0007654   0.0040446   0.0036340
   13  -0.0727610   0.0190070  -0.0007418
   14   0.0047468  -0.0376531  -0.0172307
   15  -0.0160574  -0.0236065  -0.0214951
   16   0.0012666  -0.0006895  -0.0024174
   17  -0.0049232   0.0034805   0.0043154
   18  -0.0001568  -0.0012011  -0.0003407
   19   0.0060508   0.0112174   0.0017507
   20  -0.0028736   0.0064668   0.0044208
   21  -0.0012688   0.0053708   0.0027054
   22   0.0026839  -0.0093421  -0.0009395
   23   0.0052596  -0.0089506  -0.0031132
   24   0.0026670  -0.0085822  -0.0099294
   25   0.0011223  -0.0041550   0.0058583
   26   0.0034661  -0.0051867  -0.0041628
   27  -0.0010455   0.0007095  -0.0001695
   28  -0.0062074   0.0042582  -0.0062152
   29  -0.0015455   0.0036735  -0.0126250
   30  -0.0062079  -0.0001057   0.0116349
   31   0.0002320   0.0028803  -0.0003459
   32  -0.0026821   0.0021616   0.0023742
   33   0.0009384   0.0001217  -0.0016860
   34  -0.0016140  -0.0008715   0.0028223
   35  -0.0012002  -0.0000208   0.0099998
   36   0.0021257  -0.0041448   0.0047155
   37   0.0271347  -0.0135142  -0.0082948
   38  -0.0040053  -0.0020745  -0.0085087
   39   0.0239618  -0.0119534  -0.0248378
   40  -0.0145000   0.0032326   0.0153540
   41   0.0062542   0.0117539   0.0116380
   42   0.0044508   0.0147392   0.0101053
   43   0.0622235  -0.0126959  -0.0103503
   44  -0.0126959   0.0413775   0.0250142
   45  -0.0103503   0.0250142   0.0252804
 Gradient time:  CPU 2775.37 s  wall 2775.74 s
 **********************************************************************
 **                                                                  **
 **                       VIBRATIONAL ANALYSIS                       **
 **                       --------------------                       **
 **                                                                  **
 **        VIBRATIONAL FREQUENCIES (CM**-1) AND NORMAL MODES         **
 **     FORCE CONSTANTS (mDYN/ANGSTROM) AND REDUCED MASSES (AMU)     **
 **                  INFRARED INTENSITIES (KM/MOL)                   **
 **                                                                  **
 **********************************************************************
 

 Mode:                 1                      2                      3
 Frequency:     -1616.61               -1208.34               -1078.55
 Force Cnst:      1.6206                 1.0195                 1.1827
 Red. Mass:       1.0525                 1.1851                 1.7256
 IR Active:          YES                    YES                    YES
 IR Intens:      337.120               2192.622                784.844
 Raman Active:       YES                    YES                    YES
               X      Y      Z        X      Y      Z        X      Y      Z
 C          0.000  0.000  0.000   -0.005 -0.003  0.000    0.001  0.010 -0.002
 O          0.001  0.001 -0.001    0.001  0.005 -0.002   -0.003 -0.008  0.001
 O          0.001  0.000  0.001    0.002  0.002  0.003   -0.008  0.002 -0.013
 C          0.014  0.004 -0.009    0.035  0.005 -0.014   -0.122 -0.005  0.024
 O          0.000 -0.004 -0.003   -0.001 -0.006 -0.002    0.000  0.019 -0.014
 C          0.004  0.001  0.000   -0.001  0.004 -0.007   -0.005 -0.025  0.016
 O         -0.017 -0.008 -0.001   -0.048 -0.003  0.019    0.137  0.020  0.055
 C          0.003 -0.003  0.009   -0.001 -0.001  0.021   -0.038  0.001  0.036
 H         -0.262  0.564 -0.185   -0.070 -0.131  0.241    0.302  0.237  0.572
 H          0.543  0.289  0.092    0.547  0.178 -0.039   -0.005  0.213 -0.479
 H         -0.408 -0.060 -0.075    0.656  0.277  0.098   -0.069 -0.268 -0.281
 C          0.008 -0.055  0.008   -0.070 -0.020 -0.071   -0.021 -0.046 -0.110
 H          0.043  0.019  0.026    0.108  0.028  0.098   -0.019  0.046  0.047
 H         -0.016 -0.010 -0.001   -0.014 -0.052  0.017    0.033  0.062 -0.051
 H          0.009 -0.007  0.096    0.006 -0.076  0.157   -0.043 -0.045  0.151
 TransDip  -0.256  0.179 -0.498   -0.429  0.981 -1.050    0.390 -0.521  0.618

 Mode:                 4                      5                      6
 Frequency:      -689.06                -593.41                -488.79
 Force Cnst:      0.6922                 0.3570                 0.2410
 Red. Mass:       2.4744                 1.7206                 1.7117
 IR Active:          YES                    YES                    YES
 IR Intens:     1124.942                124.037                141.455
 Raman Active:       YES                    YES                    YES
               X      Y      Z        X      Y      Z        X      Y      Z
 C          0.002  0.000  0.006   -0.023  0.011 -0.013    0.015 -0.015  0.024
 O         -0.012 -0.007 -0.013   -0.010  0.012  0.001    0.008  0.002 -0.007
 O         -0.014  0.003 -0.035   -0.005  0.012  0.010    0.011 -0.009  0.031
 C         -0.219 -0.054  0.076    0.009 -0.002  0.036    0.046 -0.017 -0.016
 O          0.009  0.027 -0.016   -0.006  0.007 -0.012   -0.005  0.008 -0.043
 C          0.041 -0.001  0.032   -0.110 -0.030  0.019    0.051  0.023 -0.019
 O          0.195  0.058 -0.014   -0.030  0.021  0.100   -0.022  0.047 -0.051
 C          0.018 -0.028 -0.027    0.050 -0.028 -0.121   -0.060  0.079  0.152
 H         -0.264 -0.130 -0.469    0.318 -0.085  0.264   -0.107  0.118  0.168
 H          0.361 -0.301  0.438    0.354 -0.220  0.548   -0.028 -0.196  0.313
 H          0.212  0.237  0.064   -0.103 -0.264 -0.020    0.253 -0.342 -0.484
 C         -0.100 -0.014  0.033    0.080  0.011 -0.091   -0.054 -0.096  0.008
 H         -0.104  0.034 -0.043    0.031  0.038  0.013   -0.053 -0.195 -0.201
 H          0.017  0.091 -0.005    0.093 -0.010  0.043    0.032 -0.034 -0.015
 H          0.058 -0.068 -0.164    0.047  0.178 -0.400    0.055  0.211 -0.450
 TransDip   0.965  0.152 -0.446   -0.088  0.223  0.265   -0.127 -0.166  0.318

 Mode:                 7                      8                      9
 Frequency:      -261.80                -224.99                -208.45
 Force Cnst:      0.3308                 0.0412                 0.1420
 Red. Mass:       8.1909                 1.3808                 5.5475
 IR Active:          YES                    YES                    YES
 IR Intens:       23.524                  4.507                 10.574
 Raman Active:       YES                    YES                    YES
               X      Y      Z        X      Y      Z        X      Y      Z
 C         -0.027 -0.091  0.073   -0.013 -0.014  0.004   -0.077  0.004  0.023
 O         -0.056  0.014 -0.086   -0.029  0.002 -0.002   -0.081  0.049 -0.055
 O          0.046 -0.030  0.107    0.006 -0.001  0.017    0.031  0.056 -0.025
 C         -0.041 -0.249  0.199    0.008 -0.037  0.021   -0.126 -0.123  0.157
 O          0.049 -0.077 -0.029    0.002 -0.003  0.011    0.202  0.011  0.027
 C         -0.046  0.549 -0.316   -0.091  0.006 -0.026    0.045 -0.066  0.137
 O         -0.011  0.019  0.011    0.039 -0.029  0.047   -0.185  0.189 -0.174
 C          0.011 -0.222  0.085    0.018  0.053 -0.054   -0.088 -0.070 -0.147
 H          0.118  0.034  0.130   -0.082  0.485 -0.124    0.197 -0.001  0.086
 H          0.141  0.143 -0.172   -0.452  0.217  0.148    0.039  0.129 -0.189
 H         -0.165 -0.052  0.082    0.367  0.480 -0.186    0.336 -0.125 -0.393
 C          0.037  0.161 -0.034    0.063 -0.064 -0.026    0.194 -0.136  0.139
 H          0.007 -0.321 -0.068    0.073 -0.054  0.045    0.129  0.055  0.072
 H          0.094 -0.181  0.032    0.040 -0.042  0.041    0.198 -0.043  0.039
 H          0.132 -0.187 -0.134   -0.063  0.080 -0.114    0.240 -0.199  0.311
 TransDip   0.037  0.060  0.139    0.051  0.045 -0.004    0.023  0.098  0.027

 Mode:                10                     11                     12
 Frequency:      -162.43                 -78.92                 100.28
 Force Cnst:      0.0952                 0.0242                 0.0452
 Red. Mass:       6.1258                 6.5808                 7.6319
 IR Active:          YES                    YES                    YES
 IR Intens:       10.136                  8.576                  3.216
 Raman Active:       YES                    YES                    YES
               X      Y      Z        X      Y      Z        X      Y      Z
 C          0.044 -0.007  0.077    0.060  0.010 -0.053    0.125  0.029  0.016
 O          0.027 -0.137  0.326   -0.110  0.045  0.029    0.400  0.025 -0.189
 O          0.117 -0.005 -0.240    0.295  0.132 -0.217   -0.023 -0.062  0.033
 C          0.026  0.023  0.146    0.058 -0.141  0.092    0.023  0.082  0.224
 O         -0.125 -0.017 -0.274    0.170 -0.082  0.124   -0.032  0.034 -0.013
 C         -0.063  0.074  0.092   -0.146 -0.102  0.042   -0.169  0.102  0.176
 O         -0.058  0.069 -0.014   -0.039 -0.013  0.034   -0.115  0.104  0.007
 C          0.023 -0.054 -0.023   -0.081  0.055  0.090    0.057 -0.142 -0.070
 H          0.047  0.131  0.049   -0.291  0.008 -0.081   -0.295 -0.044 -0.080
 H          0.058  0.190 -0.209   -0.265 -0.063  0.107   -0.514  0.020 -0.060
 H          0.147  0.194 -0.045   -0.404 -0.068  0.067   -0.251  0.095  0.020
 C          0.050  0.039  0.072   -0.282  0.107 -0.162   -0.237 -0.219 -0.121
 H         -0.226 -0.094 -0.260    0.232 -0.169  0.077   -0.080  0.033  0.011
 H         -0.238  0.150 -0.459    0.209 -0.152  0.217   -0.074  0.093 -0.088
 H         -0.107 -0.052 -0.208    0.143 -0.002 -0.040   -0.048 -0.049  0.101
 TransDip  -0.090 -0.049 -0.001    0.086 -0.011  0.036    0.044  0.026 -0.027

 Mode:                13                     14                     15
 Frequency:       154.31                 228.70                 266.13
 Force Cnst:      0.0907                 0.1734                 0.1531
 Red. Mass:       6.4663                 5.6275                 3.6695
 IR Active:          YES                    YES                    YES
 IR Intens:        9.429                 32.225                 17.713
 Raman Active:       YES                    YES                    YES
               X      Y      Z        X      Y      Z        X      Y      Z
 C         -0.061  0.050 -0.022   -0.041  0.016 -0.044   -0.077 -0.022 -0.067
 O         -0.084 -0.006  0.117   -0.049  0.021 -0.042   -0.023 -0.052 -0.033
 O         -0.131  0.012  0.003   -0.048  0.013 -0.039   -0.062 -0.036 -0.143
 C          0.049  0.137 -0.152   -0.060  0.054  0.019   -0.042  0.060  0.008
 O          0.257  0.088 -0.097    0.183 -0.107 -0.204    0.006  0.058  0.072
 C         -0.250 -0.039 -0.085    0.133  0.133 -0.004    0.294  0.025  0.087
 O          0.051  0.111 -0.008   -0.049 -0.085  0.242   -0.086  0.007  0.077
 C          0.084 -0.276  0.273    0.025  0.231 -0.110    0.072 -0.206  0.054
 H         -0.064 -0.171 -0.173   -0.092 -0.189  0.257   -0.005  0.345  0.179
 H         -0.176 -0.056 -0.023   -0.122 -0.023 -0.109   -0.294  0.209  0.172
 H         -0.143  0.201  0.367   -0.228 -0.035  0.452    0.017  0.256 -0.028
 C          0.023 -0.171 -0.030   -0.122 -0.197  0.178   -0.027  0.079 -0.058
 H          0.272  0.138 -0.104    0.357  0.040 -0.122    0.191 -0.022  0.005
 H          0.241  0.134 -0.105    0.192 -0.118 -0.189    0.119 -0.065  0.197
 H          0.246  0.085 -0.018    0.076 -0.006 -0.087   -0.036  0.396 -0.384
 TransDip   0.026 -0.025 -0.092    0.005 -0.005 -0.182   -0.113 -0.029  0.067

 Mode:                16                     17                     18
 Frequency:       325.72                 422.16                 461.60
 Force Cnst:      0.3832                 0.5792                 0.3586
 Red. Mass:       6.1310                 5.5165                 2.8564
 IR Active:          YES                    YES                    YES
 IR Intens:       38.874                 18.066                155.588
 Raman Active:       YES                    YES                    YES
               X      Y      Z        X      Y      Z        X      Y      Z
 C          0.030 -0.172 -0.075    0.174 -0.072  0.017    0.009  0.011 -0.042
 O         -0.214 -0.074 -0.108    0.020 -0.034  0.014   -0.052  0.005 -0.002
 O          0.177 -0.094  0.093    0.229  0.001  0.139   -0.034 -0.014 -0.004
 C          0.085 -0.068 -0.032   -0.200  0.002 -0.127    0.063  0.046 -0.028
 O         -0.144  0.088 -0.043    0.020  0.275 -0.042    0.036 -0.009  0.042
 C          0.067 -0.064 -0.030   -0.037 -0.034 -0.081   -0.084 -0.004 -0.016
 O         -0.015  0.322  0.094   -0.105 -0.147  0.023    0.026 -0.015  0.009
 C          0.211  0.059  0.024   -0.117 -0.119 -0.085    0.211 -0.081 -0.114
 H         -0.058 -0.119  0.102    0.008  0.064  0.149   -0.126  0.125  0.193
 H         -0.223  0.110  0.078    0.065  0.058 -0.225    0.029  0.056 -0.130
 H         -0.262  0.085  0.352    0.028  0.137  0.053    0.241 -0.304 -0.707
 C         -0.040 -0.099 -0.007   -0.072 -0.008  0.133   -0.173  0.093  0.195
 H         -0.246  0.259  0.084    0.131  0.353 -0.116   -0.202 -0.135 -0.009
 H         -0.190  0.083 -0.091    0.142  0.171  0.096    0.004  0.065 -0.077
 H         -0.113 -0.162  0.325    0.031  0.449 -0.365    0.131 -0.057  0.077
 TransDip  -0.090  0.148 -0.100    0.097 -0.047  0.083    0.107 -0.254  0.289

 Mode:                19                     20                     21
 Frequency:       474.33                 546.24                 590.37
 Force Cnst:      0.6885                 0.2372                 1.6949
 Red. Mass:       5.1938                 1.3495                 8.2539
 IR Active:          YES                    YES                    YES
 IR Intens:       21.679                 69.176                 69.760
 Raman Active:       YES                    YES                    YES
               X      Y      Z        X      Y      Z        X      Y      Z
 C         -0.125 -0.102  0.031   -0.013 -0.013  0.002    0.173 -0.107 -0.066
 O         -0.165 -0.005 -0.151   -0.021 -0.003 -0.016   -0.139 -0.048 -0.045
 O          0.019 -0.080 -0.041    0.014 -0.007  0.004    0.168 -0.089  0.102
 C          0.203  0.097  0.217    0.016  0.025  0.015   -0.196  0.506 -0.090
 O         -0.012  0.179 -0.038    0.038  0.040 -0.053    0.016 -0.299  0.024
 C         -0.084  0.075  0.216    0.034  0.026  0.023   -0.071  0.167  0.182
 O          0.114 -0.166 -0.093   -0.019 -0.075  0.035    0.003  0.049 -0.046
 C         -0.004  0.046  0.030   -0.047 -0.021  0.026   -0.076 -0.048  0.006
 H          0.002 -0.168 -0.146   -0.010  0.067 -0.054    0.048  0.032 -0.209
 H          0.289 -0.099 -0.495   -0.153 -0.086  0.407    0.020 -0.068  0.156
 H          0.005 -0.068  0.092    0.075 -0.078 -0.190    0.157 -0.028 -0.259
 C          0.027 -0.025  0.003    0.009  0.034 -0.059    0.078  0.048 -0.063
 H          0.147  0.145 -0.215   -0.401  0.319  0.126    0.271 -0.196 -0.011
 H          0.099  0.017  0.219    0.001  0.095 -0.336    0.004 -0.277  0.108
 H         -0.040  0.230 -0.260    0.302 -0.188  0.441   -0.163 -0.062  0.034
 TransDip  -0.083 -0.120  0.029   -0.220  0.150 -0.007    0.209 -0.084 -0.144

 Mode:                22                     23                     24
 Frequency:       667.88                 732.20                 743.80
 Force Cnst:      0.2913                 0.5380                 0.8481
 Red. Mass:       1.1083                 1.7032                 2.6020
 IR Active:          YES                    YES                    YES
 IR Intens:        4.164                 66.194                193.801
 Raman Active:       YES                    YES                    YES
               X      Y      Z        X      Y      Z        X      Y      Z
 C         -0.020 -0.002 -0.004    0.144  0.026 -0.047    0.231  0.032  0.017
 O          0.026 -0.007  0.009   -0.057  0.067  0.012   -0.070  0.160  0.040
 O          0.001  0.017 -0.002   -0.051 -0.092 -0.017   -0.084 -0.136 -0.058
 C          0.005 -0.009  0.000    0.018 -0.032  0.028    0.004 -0.045  0.024
 O         -0.022 -0.001 -0.058    0.036  0.058 -0.009   -0.039 -0.035  0.002
 C         -0.004 -0.003 -0.008    0.016  0.000  0.009    0.000 -0.004  0.001
 O          0.001  0.001  0.012   -0.020 -0.015  0.027   -0.005  0.008 -0.020
 C          0.009 -0.013  0.020   -0.042 -0.011 -0.001    0.000  0.001  0.001
 H         -0.020  0.015 -0.031   -0.001  0.000 -0.037    0.026  0.014  0.062
 H         -0.084 -0.009  0.124   -0.013 -0.045  0.142   -0.001  0.061 -0.096
 H          0.044 -0.117 -0.187    0.029 -0.090 -0.055   -0.033  0.099  0.078
 C         -0.006  0.028  0.015    0.015  0.015 -0.016    0.002 -0.017  0.000
 H          0.298  0.477 -0.214    0.333 -0.350  0.028   -0.260  0.501 -0.074
 H          0.048 -0.137  0.577   -0.255  0.544 -0.033    0.218 -0.480  0.158
 H         -0.188 -0.398  0.088   -0.443 -0.339  0.053    0.392  0.243 -0.071
 TransDip  -0.006  0.058  0.030    0.035  0.194 -0.171    0.370 -0.117  0.219

 Mode:                25                     26                     27
 Frequency:       769.75                 882.77                 937.51
 Force Cnst:      3.0169                 0.5399                 0.5984
 Red. Mass:       8.6421                 1.1760                 1.1556
 IR Active:          YES                    YES                    YES
 IR Intens:        5.111                295.176                132.477
 Raman Active:       YES                    YES                    YES
               X      Y      Z        X      Y      Z        X      Y      Z
 C         -0.096 -0.151  0.667   -0.015 -0.004  0.022   -0.002  0.009  0.002
 O          0.019  0.191 -0.133   -0.003 -0.002 -0.017   -0.003 -0.005 -0.008
 O          0.064 -0.105 -0.202    0.007 -0.006 -0.002   -0.001  0.005  0.005
 C         -0.075  0.086 -0.171    0.025  0.021 -0.011   -0.013 -0.038  0.020
 O          0.012  0.000 -0.019    0.040 -0.063  0.038    0.011 -0.062  0.015
 C         -0.021 -0.073 -0.083    0.004  0.002 -0.005   -0.002  0.006 -0.011
 O         -0.011  0.016  0.030    0.006  0.001 -0.034   -0.025  0.005  0.028
 C          0.092 -0.009 -0.016   -0.026  0.003 -0.008    0.035  0.008  0.033
 H         -0.008  0.017  0.061    0.071  0.096  0.250   -0.049 -0.070 -0.277
 H         -0.096  0.017  0.213    0.021  0.113  0.014    0.055 -0.123 -0.234
 H          0.000 -0.168  0.016   -0.070  0.208  0.144    0.084 -0.089 -0.231
 C          0.000  0.029 -0.001   -0.018 -0.012  0.019    0.014  0.011 -0.022
 H          0.296 -0.167  0.060   -0.347  0.319 -0.078    0.214  0.542  0.128
 H         -0.104  0.092 -0.126   -0.175  0.532  0.138   -0.234  0.269 -0.250
 H         -0.254 -0.010  0.199    0.072 -0.279 -0.429   -0.188  0.424 -0.050
 TransDip   0.048 -0.012 -0.053   -0.063 -0.164  0.521   -0.181 -0.079 -0.311

 Mode:                28                     29                     30
 Frequency:       956.84                1083.05                1261.36
 Force Cnst:      0.8071                 2.4329                 1.4757
 Red. Mass:       1.4962                 3.5202                 1.5742
 IR Active:          YES                    YES                    YES
 IR Intens:      552.681                 75.844                123.277
 Raman Active:       YES                    YES                    YES
               X      Y      Z        X      Y      Z        X      Y      Z
 C         -0.004  0.008 -0.012    0.054  0.000 -0.019    0.099 -0.013  0.064
 O         -0.004 -0.007 -0.003   -0.010 -0.030 -0.006   -0.035 -0.082 -0.045
 O          0.001  0.000  0.006   -0.021  0.041  0.004   -0.054  0.090 -0.011
 C          0.056 -0.004  0.024   -0.191 -0.056  0.013    0.036 -0.002  0.005
 O         -0.012 -0.030 -0.014    0.006  0.009  0.005   -0.032 -0.007  0.015
 C         -0.004  0.008 -0.011   -0.056  0.026  0.072    0.007 -0.004 -0.004
 O          0.074  0.010 -0.099   -0.075 -0.116 -0.147    0.023  0.009  0.034
 C         -0.069 -0.045 -0.039    0.290  0.122  0.109   -0.050 -0.013 -0.022
 H          0.078  0.129  0.406   -0.062  0.106  0.343    0.058 -0.343 -0.042
 H         -0.123  0.146  0.445   -0.130  0.190  0.283   -0.007  0.368  0.130
 H         -0.015 -0.057  0.284    0.076 -0.235  0.413   -0.143  0.149 -0.250
 C         -0.058  0.010  0.076    0.044  0.013 -0.058    0.004 -0.013  0.001
 H          0.352  0.222  0.197    0.110 -0.017 -0.362    0.282 -0.076 -0.386
 H         -0.064 -0.063 -0.222   -0.239  0.168  0.017   -0.246  0.149  0.037
 H         -0.220  0.315  0.196    0.151  0.074  0.184    0.476  0.130  0.121
 TransDip   0.181  0.080 -0.727   -0.106 -0.184 -0.181    0.296  0.039  0.192

 Mode:                31                     32                     33
 Frequency:      1263.09                1312.03                1426.64
 Force Cnst:      2.4948                 1.0739                 1.3121
 Red. Mass:       2.6541                 1.0589                 1.0942
 IR Active:          YES                    YES                    YES
 IR Intens:      231.095                342.722                718.340
 Raman Active:       YES                    YES                    YES
               X      Y      Z        X      Y      Z        X      Y      Z
 C          0.194 -0.056  0.102    0.014 -0.011  0.002    0.008  0.013  0.009
 O         -0.054 -0.132 -0.067    0.000 -0.004  0.003   -0.005 -0.009 -0.006
 O         -0.111  0.178 -0.020   -0.008  0.011 -0.002    0.000  0.000 -0.001
 C          0.039 -0.003 -0.002   -0.019 -0.004  0.000   -0.008 -0.005  0.003
 O          0.027  0.010 -0.011    0.018  0.013 -0.010   -0.001  0.007  0.010
 C         -0.001  0.005  0.018   -0.003  0.005  0.010    0.002  0.006  0.000
 O         -0.019  0.011  0.001    0.002 -0.021 -0.016   -0.020 -0.020 -0.035
 C          0.002 -0.013 -0.009    0.023  0.020  0.027    0.041  0.027  0.036
 H         -0.055  0.359  0.021   -0.005 -0.431 -0.093    0.239 -0.062  0.224
 H          0.011 -0.393 -0.156   -0.017  0.605  0.153    0.131 -0.341  0.054
 H          0.152 -0.145  0.253   -0.108 -0.040 -0.187   -0.351  0.612 -0.365
 C          0.002  0.012 -0.005    0.006 -0.009  0.000   -0.014 -0.012  0.012
 H         -0.248  0.089  0.320   -0.177  0.046  0.352    0.102  0.035 -0.013
 H          0.223 -0.178 -0.018    0.194 -0.105 -0.052    0.112 -0.110 -0.181
 H         -0.405 -0.155 -0.125   -0.317 -0.065 -0.223   -0.170 -0.109  0.069
 TransDip   0.465 -0.113  0.090    0.110  0.155 -0.562    0.012 -0.477  0.714

 Mode:                34                     35                     36
 Frequency:      1529.91                1608.58                1824.12
 Force Cnst:      1.5612                15.8969                 2.2676
 Red. Mass:       1.1321                10.4274                 1.1567
 IR Active:          YES                    YES                    YES
 IR Intens:       73.386                232.826                289.411
 Raman Active:       YES                    YES                    YES
               X      Y      Z        X      Y      Z        X      Y      Z
 C          0.007 -0.017  0.001    0.009  0.738  0.195    0.003  0.010  0.005
 O          0.002  0.003  0.001   -0.111 -0.309 -0.149   -0.001 -0.005 -0.001
 O         -0.005  0.007 -0.001    0.115 -0.218  0.018    0.001 -0.002 -0.001
 C         -0.002 -0.005  0.007   -0.009  0.014  0.047   -0.003 -0.016 -0.027
 O          0.015 -0.025 -0.082    0.011 -0.002 -0.018   -0.082 -0.012 -0.017
 C          0.001  0.001 -0.002    0.004 -0.037 -0.083   -0.003  0.018  0.029
 O         -0.003 -0.004 -0.011   -0.031 -0.007  0.004   -0.004 -0.002 -0.018
 C          0.009  0.005  0.009    0.014  0.008  0.008    0.018  0.010  0.016
 H          0.068 -0.035  0.037   -0.032  0.016 -0.085    0.019  0.050 -0.041
 H          0.025 -0.097  0.028   -0.017  0.080  0.039   -0.054 -0.053 -0.055
 H         -0.081  0.139 -0.092    0.108 -0.116  0.111    0.004 -0.044  0.003
 C         -0.005 -0.001  0.006    0.006  0.003 -0.009   -0.007  0.002  0.011
 H         -0.220 -0.194  0.375   -0.164 -0.051  0.060    0.402  0.004  0.490
 H         -0.068  0.269  0.618    0.167 -0.127  0.261    0.436  0.317 -0.053
 H          0.017  0.423  0.273   -0.096  0.055  0.036    0.458 -0.217 -0.149
 TransDip   0.017 -0.192 -0.195    0.045  0.476  0.102   -0.318  0.226 -0.381

 Mode:                37                     38                     39
 Frequency:      1877.31                2102.33                2524.51
 Force Cnst:     17.2108                 2.7735                 4.2087
 Red. Mass:       8.2886                 1.0651                 1.1208
 IR Active:          YES                    YES                    YES
 IR Intens:      136.466                826.513                676.279
 Raman Active:       YES                    YES                    YES
               X      Y      Z        X      Y      Z        X      Y      Z
 C          0.028 -0.083 -0.025   -0.001 -0.004  0.000    0.001 -0.003  0.001
 O         -0.005  0.017  0.005    0.001  0.003  0.001    0.000  0.001 -0.001
 O         -0.014  0.030  0.009    0.000  0.001  0.000    0.000  0.000  0.000
 C         -0.051  0.323  0.471    0.013 -0.026 -0.025    0.006 -0.007 -0.011
 O         -0.041 -0.017  0.006   -0.021 -0.033  0.017    0.006  0.003  0.001
 C          0.076 -0.291 -0.463   -0.002  0.018  0.021    0.005  0.009  0.008
 O         -0.062 -0.033 -0.042   -0.002  0.007  0.008   -0.016 -0.003 -0.008
 C          0.051  0.037  0.053   -0.010 -0.005 -0.009    0.014  0.011  0.021
 H          0.086  0.064 -0.099    0.037 -0.014 -0.055    0.849  0.193 -0.424
 H         -0.007  0.068  0.018    0.031  0.065  0.041    0.041  0.118  0.047
 H          0.065 -0.065  0.074    0.050 -0.014  0.040    0.101 -0.063  0.091
 C         -0.008 -0.001 -0.001   -0.005 -0.002 -0.003   -0.088 -0.024  0.015
 H          0.090 -0.040 -0.042   -0.133 -0.004 -0.441   -0.009 -0.023 -0.015
 H          0.464  0.249 -0.066    0.691  0.365 -0.040   -0.088 -0.052  0.009
 H          0.076 -0.045  0.026   -0.252  0.186  0.238    0.012 -0.026  0.000
 TransDip   0.139 -0.327 -0.116   -0.355 -0.669  0.523   -0.074 -0.248  0.792

 STANDARD THERMODYNAMIC QUANTITIES AT   298.15 K  AND     1.00 ATM

   This Molecule has 11 Imaginary Frequencies
   Zero point vibrational energy:       38.704 kcal/mol

   Atom    1 Element C  Has Mass   12.00000
   Atom    2 Element O  Has Mass   15.99491
   Atom    3 Element O  Has Mass   15.99491
   Atom    4 Element C  Has Mass   12.00000
   Atom    5 Element O  Has Mass   15.99491
   Atom    6 Element C  Has Mass   12.00000
   Atom    7 Element O  Has Mass   15.99491
   Atom    8 Element C  Has Mass   12.00000
   Atom    9 Element H  Has Mass    1.00783
   Atom   10 Element H  Has Mass    1.00783
   Atom   11 Element H  Has Mass    1.00783
   Atom   12 Element C  Has Mass   12.00000
   Atom   13 Element H  Has Mass    1.00783
   Atom   14 Element H  Has Mass    1.00783
   Atom   15 Element H  Has Mass    1.00783
   Molecular Mass:   130.026620 amu
   Principal axes and moments of inertia in amu*Bohr^2:
                             1           2           3
    Eigenvalues --      797.68796  1580.88629  1625.79852
          X               0.99957    -0.02511    -0.01541
          Y               0.01857     0.94303    -0.33218
          Z               0.02287     0.33175     0.94309
   Rotational Symmetry Number is   1
   The Molecule is an Asymmetric Top
   Translational Enthalpy:        0.889 kcal/mol
   Rotational Enthalpy:           0.889 kcal/mol
   Vibrational Enthalpy:         41.541 kcal/mol
   gas constant (RT):             0.592 kcal/mol
   Translational Entropy:        40.501  cal/mol.K
   Rotational Entropy:           29.107  cal/mol.K
   Vibrational Entropy:          15.935  cal/mol.K

   Total Enthalpy:               43.911 kcal/mol
   Total Entropy:                85.542  cal/mol.K
Archival summary:
1\1\bt2600-16\FREQ\ProcedureUnspecified\6-31+G*\456(2-,1)\emavera\MonMay813:43:262017MonMay813:43:262017\0\\#,FREQ,ProcedureUnspecified,6-31+G*,\\-2,1\O\C,1,1.26711\C,1,1.50034,2,120.189\C,3,1.26238,1,114.962,2,9.22244,0\H,1,1.54363,2,114.659,3,166.132,0\H,5,1.09461,1,115.511,2,123.451,0\H,5,1.09951,1,110.384,2,-114.194,0\C,5,1.10065,1,105.076,2,3.03937,0\C,3,1.61416,1,125.465,2,161.812,0\O,9,1.2525,3,128.091,1,72.112,0\O,9,1.26899,3,107.629,1,-109.053,0\O,3,2.05903,1,73.3468,2,-104.855,0\H,12,1.08956,3,101.924,1,91.8583,0\H,12,1.09217,3,97.0514,1,-152.637,0\H,12,1.10508,3,127.409,1,-33.9773,0\\\@

 Total job time:  3098.07s(wall), 3098.96s(cpu) 
 Mon May  8 13:43:26 2017

        *************************************************************
        *                                                           *
        *  Thank you very much for using Q-Chem.  Have a nice day.  *
        *                                                           *
        *************************************************************


0 sent ACK to 0 
now end server 0 ... 
cleanup process ... done

Running Job 2 of 3 ts_no_solvent.qcin
qchem ts_no_solvent.qcin_47709.1 /tmp/ts_no_solvent.qcin/ 1
/programs/x86_64/lib/qchem-4.3.2/bin/mpi/mpirun_qchem -machinefile /var/spool/torque/aux//114843.vali -np 1 /programs/x86_64/lib/qchem-4.3.2/exe/qcprog.exe ts_no_solvent.qcin_47709.1 /tmp/ts_no_solvent.qcin/

Process 0 of 1 is on bt2600-16.csail.mit.edu - thread support 0
initial socket setup ...start
initial socket setup ...done 
now start server 0 ... 

cmd = ssh thor /programs/x86_64/lib/qchem-4.3.2/bin/get_hostid 535422202 > /tmp/ts_no_solvent.qcin/lic.dat
                  Welcome to Q-Chem
     A Quantum Leap Into The Future Of Chemistry


 Q-Chem 4.3, Q-Chem, Inc., Pleasanton, CA (2015)

 Y. Shao,  Z. Gan,  E. Epifanovsky,  A. T. B. Gilbert,  M. Wormit,  
 J. Kussmann,  A. W. Lange,  A. Behn,  J. Deng,  X. Feng,  D. Ghosh,  
 M. Goldey,  P. R. Horn,  L. D. Jacobson,  I. Kaliman,  R. Z. Khaliullin,  
 T. Kus,  A. Landau,  J. Liu,  E. I. Proynov,  Y. M. Rhee,  R. M. Richard,  
 M. A. Rohrdanz,  R. P. Steele,  E. J. Sundstrom,  H. L. Woodcock III,  
 P. M. Zimmerman,  D. Zuev,  B. Albrecht,  E. Alguire,  B. Austin,  
 S. A. Baeppler,  G. J. O. Beran,  Y. A. Bernard,  E. Berquist,  
 K. Brandhorst,  K. B. Bravaya,  S. T. Brown,  D. Casanova,  C.-M. Chang,  
 Y. Chen,  S. H. Chien,  K. D. Closser,  D. L. Crittenden,  M. Diedenhofen,  
 R. A. DiStasio Jr.,  H. Do,  A. D. Dutoi,  R. G. Edgar,  P.-T. Fang,  
 S. Fatehi,  Q. Feng,  L. Fusti-Molnar,  A. Ghysels,  
 A. Golubeva-Zadorozhnaya,  J. Gomes,  A. Gunina,  M. W. D. Hanson-Heine,  
 P. H. P. Harbach,  A. W. Hauser,  E. G. Hohenstein,  Z. C. Holden,  K. Hui,  
 T.-C. Jagau,  H. Ji,  B. Kaduk,  K. Khistyaev,  Jaehoon Kim,  Jihan Kim,  
 R. A. King,  P. Klunzinger,  D. Kosenkov,  T. Kowalczyk,  C. M. Krauter,  
 K. U. Lao,  A. Laurent,  K. V. Lawler,  S. Lehtola,  S. V. Levchenko,  
 C. Y. Lin,  Y.-S. Lin,  F. Liu,  E. Livshits,  R. C. Lochan,  A. Luenser,  
 P. Manohar,  S. F. Manzer,  S.-P. Mao,  N. Mardirossian,  A. V. Marenich,  
 L. A. Martinez-Martinez,  S. A. Maurer,  N. J. Mayhall,  K. Nanda,  
 C. M. Oana,  R. Olivares-Amaya,  D. P. O'Neill,  J. A. Parkhill,  
 T. M. Perrine,  R. Peverati,  P. A. Pieniazek,  F. Plasser,  A. Prociuk,  
 D. R. Rehn,  E. Rosta,  N. J. Russ,  N. Sergueev,  S. M. Sharada,  
 S. Sharma,  D. W. Small,  A. Sodt,  T. Stauch,  T. Stein,  D. Stuck,  
 Y.-C. Su,  A. J. W. Thom,  T. Tsuchimochi,  L. Vogt,  O. Vydrov,  T. Wang,  
 M. A. Watson,  J. Wenzel,  A. White,  C. F. Williams,  V. Vanovschi,  
 S. Yeganeh,  S. R. Yost,  Z.-Q. You,  I. Y. Zhang,  X. Zhang,  Y. Zhao,  
 B. R. Brooks,  G. K. L. Chan,  D. M. Chipman,  C. J. Cramer,  
 W. A. Goddard III,  M. S. Gordon,  W. J. Hehre,  A. Klamt,  
 H. F. Schaefer III,  M. W. Schmidt,  C. D. Sherrill,  D. G. Truhlar,  
 A. Warshel,  X. Xu,  A. Aspuru-Guzik,  R. Baer,  A. T. Bell,  N. A. Besley,  
 J.-D. Chai,  A. Dreuw,  B. D. Dunietz,  T. R. Furlani,  S. R. Gwaltney,  
 C.-P. Hsu,  Y. Jung,  J. Kong,  D. S. Lambrecht,  W. Liang,  C. Ochsenfeld,  
 V. A. Rassolov,  L. V. Slipchenko,  J. E. Subotnik,  T. Van Voorhis,  
 J. M. Herbert,  A. I. Krylov,  P. M. W. Gill,  M. Head-Gordon

 Contributors to earlier versions of Q-Chem not listed above: 
 R. D. Adamson,  J. Baker,  E. F. C. Byrd,  A. K. Chakraborty,  C.-L. Cheng,  
 H. Dachsel,  R. J. Doerksen,  G. Hawkins,  A. Heyden,  S. Hirata,  
 G. Kedziora,  F. J. Keil,  C. Kelley,  P. P. Korambath,  W. Kurlancheek,  
 A. M. Lee,  M. S. Lee,  D. Liotard,  I. Lotan,  P. E. Maslen,  N. Nair,  
 D. Neuhauser,  R. Olson,  B. Peters,  J. Ritchie,  N. E. Schultz,  
 N. Shenvi,  A. C. Simmonett,  K. S. Thanthiriwatte,  Q. Wu,  W. Zhang

 Please cite Q-Chem as follows:
 Y. Shao et al., Mol. Phys. 113, 184-215 (2015)
 DOI: 10.1080/00268976.2014.952696

 Q-Chem 4.3.0 for Intel X86 Linux

 Parts of Q-Chem use Armadillo 5.200.1 (Boston Tea Smuggler).
 http://arma.sourceforge.net/

 Q-Chem begins on Mon May  8 13:43:29 2017  

Host: 
0

     Scratch files written to /tmp/ts_no_solvent.qcin//
 Oct1215 13750_ 19228  19214 4150   
 Parallel job on  1  processors
Processing $rem in /programs/x86_64/lib/qchem-4.3.2/config/preferences.
 MEM_TOTAL  2000 

Checking the input file for inconsistencies... 	...done.

--------------------------------------------------------------
User input:
--------------------------------------------------------------

$molecule
READ
$end

$rem
jobtype          TS
exchange         b3lyp
basis            6-31+G(d)
geom_opt_hessian READ
geom_opt_maxcyc  100
$end

--------------------------------------------------------------
 ----------------------------------------------------------------
             Standard Nuclear Orientation (Angstroms)
    I     Atom           X                Y                Z
 ----------------------------------------------------------------
    1      C       1.5755726512    -0.0674276096     0.2999052130
    2      O       1.9855969083     0.9983217312     0.8145161836
    3      O       2.1930195104    -1.1743778373     0.3612938880
    4      C       0.2329177805    -0.3038470424    -0.5643341925
    5      O      -0.4960317343     1.6108603524    -0.7695613768
    6      C       0.4022520438    -0.9962682947    -1.6062001707
    7      O      -1.1639988875    -0.3146314756    -0.0170348970
    8      C      -2.1057351756    -0.8376025862    -0.6842732211
    9      H      -1.5034900622    -0.0293238679     1.4615290384
   10      H      -1.3771429065     1.0095927416     1.7822449172
   11      H      -0.8913637274    -0.6587737008     2.1233592719
   12      C      -2.5599801017    -0.3170061611     1.5733489593
   13      H      -0.9222510922     1.5832428266    -1.7719192626
   14      H       0.4660944857     2.1259354585    -0.7266105697
   15      H      -1.1906962627     2.1408545395    -0.0929933059
 ----------------------------------------------------------------
 Molecular Point Group                 C1    NOp =  1
 Largest Abelian Subgroup              C1    NOp =  1
 Nuclear Repulsion Energy =   438.0573087495 hartrees
 There are       35 alpha and       35 beta electrons
 Requested basis set is 6-31+G(d)
 There are 57 shells and 183 basis functions

 Total QAlloc Memory Limit   2000 MB
 Mega-Array Size        61 MB
 MEM_STATIC part        62 MB
 A cutoff of  1.0D-11 yielded   1525 shell pairs
 There are     16282 function pairs
 
 -------------------------------------------------------
 OpenMP Integral Computing Module                       
 Release: version 1.0, May 2013, Q-Chem Inc. Pittsburgh 
 -------------------------------------------------------
 Integral Job Info:
 Integral job number is                      11
 Integral operator is                         1
 short-range coefficients                     0
 long-range coefficients              100000000
 Omega coefficients                           0
 if combine SR and LR in K                    0
 Integral screening is                        0
[...]
 C          0.058  0.042  0.029    0.009 -0.004 -0.004   -0.254  0.050  0.062
 H         -0.042 -0.018  0.041   -0.021  0.005  0.028    0.020 -0.026 -0.032
 H          0.307  0.006 -0.016   -0.198  0.512  0.451   -0.054  0.185  0.146
 H         -0.035 -0.029  0.053   -0.022  0.005  0.029    0.062  0.012 -0.054
 C         -0.062  0.159 -0.076    0.012 -0.012 -0.010   -0.296  0.188  0.184
 H          0.094 -0.055 -0.271   -0.014 -0.018 -0.027    0.010 -0.014 -0.028
 H         -0.054 -0.044  0.077   -0.005  0.032 -0.065    0.004 -0.050 -0.003
 H          0.199 -0.037 -0.043   -0.268  0.407  0.486   -0.067  0.136  0.173
 TransDip   0.036 -0.014  0.018   -0.002  0.053  0.038   -0.134  0.015  0.036

 Mode:                13                     14                     15
 Frequency:       157.56                 168.66                 196.71
 Force Cnst:      0.0786                 0.2243                 0.2798
 Red. Mass:       5.3751                13.3846                12.2720
 IR Active:          YES                    YES                    YES
 IR Intens:       11.898                 40.721                  3.715
 Raman Active:       YES                    YES                    YES
               X      Y      Z        X      Y      Z        X      Y      Z
 C          0.096 -0.135  0.082   -0.011 -0.059  0.010   -0.073  0.147  0.007
 O          0.023 -0.139  0.102   -0.085 -0.068  0.037    0.348  0.172  0.247
 O          0.117 -0.120  0.067    0.114  0.022 -0.096   -0.244 -0.286 -0.221
 C          0.080 -0.070  0.040   -0.016 -0.147  0.141   -0.145  0.232 -0.003
 O         -0.233  0.298 -0.181    0.012  0.023  0.001   -0.120  0.125 -0.110
 C         -0.067  0.135 -0.040    0.087 -0.319  0.231    0.421 -0.338  0.082
 O          0.001  0.006  0.001   -0.281  0.502 -0.177   -0.051 -0.042  0.002
 C         -0.001  0.004  0.001   -0.086  0.277 -0.121   -0.034 -0.047  0.025
 H          0.000  0.000 -0.001    0.040 -0.015  0.008   -0.014 -0.005  0.010
 H          0.215 -0.320 -0.225    0.008  0.011  0.037    0.101 -0.083 -0.005
 H         -0.004  0.008 -0.009   -0.097 -0.039 -0.012    0.035  0.005  0.015
 C          0.011 -0.005  0.011    0.347 -0.390  0.044   -0.089  0.032  0.013
 H         -0.153  0.203 -0.146    0.031 -0.002  0.011    0.007 -0.026 -0.048
 H         -0.156  0.401 -0.200    0.014  0.042  0.013   -0.019  0.324 -0.035
 H          0.140 -0.169 -0.361    0.001  0.007  0.036    0.002 -0.016 -0.099
 TransDip   0.013  0.094 -0.057   -0.166  0.117  0.019    0.007  0.061  0.009

 Mode:                16                     17                     18
 Frequency:       254.79                 344.95                 378.42
 Force Cnst:      0.4640                 0.0723                 0.0855
 Red. Mass:      12.1320                 1.0310                 1.0131
 IR Active:          YES                    YES                    YES
 IR Intens:        9.363                 35.908                 17.840
 Raman Active:       YES                    YES                    YES
               X      Y      Z        X      Y      Z        X      Y      Z
 C         -0.085 -0.050  0.156   -0.001  0.001  0.002   -0.004  0.001 -0.003
 O          0.032 -0.035 -0.195   -0.011  0.000  0.014   -0.006 -0.001 -0.007
 O          0.112  0.033 -0.107    0.000  0.000 -0.002   -0.001  0.008  0.001
 C         -0.380 -0.137  0.623    0.001  0.007 -0.004   -0.003 -0.008  0.000
 O          0.019 -0.017  0.011    0.006 -0.014 -0.030    0.001 -0.004  0.005
 C          0.367  0.209 -0.385    0.003  0.000  0.000   -0.006 -0.002 -0.005
 O         -0.043 -0.013 -0.029   -0.001 -0.001 -0.006    0.000 -0.004  0.001
 C         -0.027 -0.023 -0.006    0.003 -0.003  0.000   -0.002  0.001  0.002
 H         -0.018  0.004 -0.004   -0.017 -0.014  0.011    0.117  0.067 -0.044
 H         -0.026  0.013 -0.008   -0.262 -0.222  0.002    0.208 -0.330  0.349
 H          0.025  0.016 -0.001    0.018  0.015 -0.006   -0.108 -0.081  0.026
 C         -0.036  0.043  0.039    0.000  0.000 -0.004   -0.002  0.000  0.002
 H         -0.017  0.020  0.040   -0.225  0.157  0.720    0.224 -0.263  0.065
 H          0.027 -0.065 -0.055    0.167 -0.018 -0.264    0.143  0.245  0.072
 H          0.014  0.013  0.012    0.332  0.280 -0.003   -0.293  0.468 -0.416
 TransDip  -0.044 -0.041  0.077    0.038  0.095  0.163    0.086  0.104  0.005

 Mode:                19                     20                     21
 Frequency:       384.60                 391.51                 412.94
 Force Cnst:      0.0888                 0.0914                 0.1014
 Red. Mass:       1.0184                 1.0120                 1.0093
 IR Active:          YES                    YES                    YES
 IR Intens:       38.359                 16.276                  7.004
 Raman Active:       YES                    YES                    YES
               X      Y      Z        X      Y      Z        X      Y      Z
 C         -0.005  0.001 -0.002   -0.002  0.000 -0.001    0.000  0.001 -0.001
 O         -0.014 -0.002 -0.003   -0.003  0.000  0.000    0.001  0.001  0.000
 O         -0.002  0.010  0.002   -0.001  0.002 -0.001   -0.001 -0.001 -0.002
 C         -0.003 -0.007 -0.002   -0.002 -0.002  0.000    0.000  0.000  0.000
 O         -0.006  0.011 -0.007   -0.004  0.006 -0.006    0.001  0.000  0.001
 C         -0.006 -0.003 -0.006   -0.002 -0.001 -0.002    0.000  0.001 -0.001
 O         -0.001 -0.002 -0.002    0.002 -0.007  0.000    0.003 -0.002  0.002
 C          0.001 -0.004  0.003   -0.005  0.003  0.001   -0.005  0.002 -0.007
 H         -0.250 -0.125  0.073    0.554  0.289 -0.167    0.376 -0.409  0.513
 H          0.145  0.231 -0.108   -0.018  0.163 -0.131    0.033  0.006  0.011
 H          0.229  0.150 -0.040   -0.508 -0.336  0.096   -0.327  0.377 -0.415
 C         -0.002 -0.004 -0.004   -0.004  0.006  0.007   -0.003  0.002 -0.003
 H          0.264 -0.339  0.380    0.083 -0.112  0.158   -0.018  0.019  0.020
 H          0.330  0.380 -0.088    0.130  0.130 -0.063   -0.003 -0.012 -0.006
 H         -0.182 -0.351  0.089    0.038 -0.229  0.145   -0.047 -0.014 -0.018
 TransDip   0.173 -0.032  0.093    0.124  0.016  0.034    0.035 -0.058  0.051

 Mode:                22                     23                     24
 Frequency:       447.28                 463.28                 470.62
 Force Cnst:      0.1214                 1.4488                 1.6137
 Red. Mass:       1.0303                11.4568                12.3659
 IR Active:          YES                    YES                    YES
 IR Intens:       30.439                  7.218                  0.344
 Raman Active:       YES                    YES                    YES
               X      Y      Z        X      Y      Z        X      Y      Z
 C         -0.004  0.002 -0.002   -0.005  0.033  0.000    0.015 -0.014  0.004
 O          0.003  0.002 -0.005    0.038  0.038  0.017   -0.005 -0.015 -0.006
 O         -0.002  0.006  0.001   -0.032 -0.003 -0.004    0.019  0.007  0.017
 C         -0.001 -0.014  0.001    0.027 -0.028 -0.010   -0.028  0.033 -0.012
 O         -0.024  0.005  0.009    0.007 -0.001 -0.003    0.001  0.003  0.000
 C         -0.007 -0.002 -0.007    0.020  0.030 -0.070    0.024 -0.002 -0.025
 O          0.006 -0.009  0.005    0.237 -0.320  0.114   -0.077 -0.193 -0.259
 C         -0.013  0.015 -0.005   -0.495  0.566 -0.227    0.173  0.437  0.706
 H         -0.017 -0.052  0.046   -0.088  0.013 -0.034    0.029 -0.024  0.017
 H         -0.399 -0.122 -0.098    0.106  0.032  0.026   -0.006  0.000 -0.002
 H          0.015  0.050 -0.038    0.073 -0.009  0.033   -0.029  0.006 -0.025
 C          0.002 -0.006  0.004    0.134 -0.222  0.137   -0.098 -0.187 -0.338
 H          0.326 -0.354 -0.292   -0.118  0.124  0.130   -0.008  0.017 -0.048
 H          0.074  0.256  0.140   -0.014 -0.082 -0.059   -0.024 -0.027  0.003
 H          0.562  0.214  0.192   -0.149 -0.061 -0.047    0.002 -0.002  0.004
 TransDip   0.174  0.011 -0.030   -0.001  0.083 -0.021   -0.013  0.014  0.001

 Mode:                25                     26                     27
 Frequency:       543.62                 564.63                 780.75
 Force Cnst:      2.1854                 2.4879                 4.1676
 Red. Mass:      12.5517                13.2448                11.6044
 IR Active:          YES                    YES                    YES
 IR Intens:        9.277                 14.794                 14.909
 Raman Active:       YES                    YES                    YES
               X      Y      Z        X      Y      Z        X      Y      Z
 C          0.140 -0.163  0.016   -0.051  0.167 -0.020   -0.460 -0.079  0.716
 O         -0.355 -0.201 -0.234   -0.232  0.158 -0.138    0.114 -0.019 -0.186
 O          0.089 -0.220  0.042   -0.272 -0.336 -0.190    0.119  0.039 -0.186
 C         -0.116  0.654 -0.055    0.598 -0.253  0.257    0.177  0.070 -0.246
 O          0.003 -0.004  0.020    0.011 -0.011  0.011   -0.003  0.003  0.014
 C          0.302  0.098  0.263    0.139  0.317  0.181   -0.030 -0.014  0.031
 O          0.036 -0.022  0.026   -0.030  0.011 -0.017   -0.001 -0.002 -0.001
 C         -0.052  0.023 -0.038    0.021  0.011  0.039    0.000  0.003  0.002
 H          0.008 -0.006  0.010   -0.004  0.004 -0.005    0.002 -0.002  0.002
 H         -0.032 -0.019  0.005   -0.005 -0.002  0.003    0.002 -0.003  0.008
 H         -0.006  0.005 -0.004    0.002 -0.002  0.002   -0.002  0.001 -0.001
 C          0.011 -0.010  0.020   -0.014 -0.002 -0.012   -0.002 -0.001 -0.001
 H          0.127 -0.131 -0.091    0.035 -0.039  0.015    0.033 -0.030 -0.058
 H          0.059  0.032 -0.041    0.027 -0.004 -0.011    0.097 -0.078 -0.225
 H          0.042  0.035  0.009    0.003  0.007  0.000   -0.007  0.010 -0.006
 TransDip   0.081  0.007 -0.054    0.111  0.024  0.049   -0.046 -0.013  0.114

 Mode:                28                     29                     30
 Frequency:       814.66                 841.41                1190.37
 Force Cnst:      0.4208                 5.4193                11.3819
 Red. Mass:       1.0762                12.9920                13.6334
 IR Active:          YES                    YES                    YES
 IR Intens:      156.576                 10.753                 35.084
 Raman Active:       YES                    YES                    YES
               X      Y      Z        X      Y      Z        X      Y      Z
 C         -0.017 -0.012  0.006    0.375  0.282  0.327   -0.020 -0.029 -0.012
 O          0.009 -0.012 -0.020   -0.208  0.404 -0.112   -0.001  0.032  0.001
 O          0.000  0.005 -0.003    0.223 -0.371  0.088    0.016 -0.013  0.008
 C          0.009  0.005 -0.004   -0.184 -0.087 -0.087   -0.014 -0.001 -0.009
 O          0.021 -0.016 -0.052    0.014 -0.013 -0.005   -0.001  0.000 -0.002
 C          0.006  0.006  0.005   -0.203 -0.239 -0.222    0.008  0.014  0.008
 O          0.001  0.000 -0.002   -0.006  0.015 -0.004   -0.481 -0.286  0.310
 C         -0.001  0.000  0.000   -0.008 -0.006  0.000    0.050  0.054 -0.067
 H          0.005  0.004 -0.001    0.002  0.000  0.001    0.003  0.005 -0.003
 H         -0.005  0.017 -0.028   -0.001  0.004 -0.006    0.003  0.002  0.000
 H         -0.004 -0.002  0.001   -0.002  0.000 -0.001   -0.001 -0.002  0.002
 C         -0.001 -0.001  0.000   -0.001 -0.002  0.002    0.597  0.318 -0.345
 H         -0.117  0.097  0.303   -0.024  0.021  0.076   -0.001  0.004  0.016
 H         -0.345  0.307  0.814   -0.087  0.066  0.204    0.007  0.011  0.016
 H          0.022 -0.043  0.025    0.004 -0.010  0.006   -0.003 -0.002  0.000
 TransDip  -0.117  0.121  0.364    0.045  0.035  0.088   -0.144  0.119 -0.034

 Mode:                31                     32                     33
 Frequency:      1325.03                1565.75                1756.84
 Force Cnst:     14.0678                17.9341                 1.9754
 Red. Mass:      13.5997                12.4162                 1.0863
 IR Active:          YES                    YES                    YES
 IR Intens:      455.192                503.218                220.741
 Raman Active:       YES                    YES                    YES
               X      Y      Z        X      Y      Z        X      Y      Z
 C         -0.517 -0.417 -0.348   -0.410  0.694 -0.200    0.006 -0.015  0.003
 O         -0.004  0.466  0.037    0.031 -0.328 -0.006   -0.003  0.007 -0.001
 O          0.348 -0.190  0.190    0.284 -0.194  0.158   -0.005  0.004 -0.003
 C         -0.018 -0.019 -0.026    0.011  0.023  0.018   -0.001 -0.002 -0.002
 O         -0.003  0.003 -0.001    0.004 -0.018  0.008   -0.003 -0.066  0.022
 C          0.064  0.076  0.072   -0.021 -0.016 -0.022    0.001  0.002  0.002
 O          0.023  0.003 -0.010    0.002 -0.001 -0.002    0.000  0.000  0.001
 C          0.030  0.014 -0.015   -0.024 -0.011  0.013    0.004  0.002 -0.002
 H         -0.005 -0.002  0.000    0.003  0.002 -0.001    0.000  0.000  0.000
 H          0.003  0.001  0.004   -0.001  0.000 -0.005    0.000 -0.001  0.000
 H          0.004  0.000 -0.002   -0.003 -0.001  0.001    0.000  0.000  0.000
 C         -0.047 -0.024  0.027    0.019  0.010 -0.011   -0.002 -0.001  0.001
 H          0.029 -0.029  0.014   -0.091  0.107 -0.078   -0.356  0.450 -0.314
 H          0.025 -0.041 -0.002    0.069  0.147 -0.041    0.451  0.602 -0.020
 H         -0.004  0.001 -0.002    0.003 -0.002  0.003    0.000  0.002 -0.001
 TransDip  -0.593 -0.308 -0.144   -0.178  0.669 -0.192    0.068  0.441 -0.164

 Mode:                34                     35                     36
 Frequency:      1842.28                1913.90                3447.85
 Force Cnst:     24.4459                26.0754                 7.4353
 Red. Mass:      12.2249                12.0821                 1.0616
 IR Active:          YES                    YES                    YES
 IR Intens:      949.162                 56.157                508.372
 Raman Active:       YES                    YES                    YES
               X      Y      Z        X      Y      Z        X      Y      Z
 C          0.044  0.090  0.038   -0.064 -0.080 -0.051    0.000  0.004  0.001
 O          0.001 -0.031 -0.002   -0.003 -0.005 -0.001   -0.001 -0.003  0.000
 O          0.002 -0.009 -0.002   -0.010  0.009 -0.005    0.001 -0.001  0.000
 C         -0.207 -0.202 -0.201    0.365  0.423  0.395    0.000  0.000  0.000
 O         -0.002  0.003 -0.004   -0.001  0.000  0.000   -0.039  0.034 -0.029
 C          0.133  0.183  0.173   -0.293 -0.339 -0.335    0.000  0.000  0.000
 O         -0.189 -0.123  0.126   -0.105 -0.068  0.071    0.001  0.000  0.000
 C          0.583  0.313 -0.350    0.299  0.162 -0.181   -0.001 -0.001  0.001
 H         -0.001  0.003 -0.005    0.002  0.001 -0.003    0.000  0.000  0.001
 H          0.002  0.002  0.000    0.000  0.000  0.000   -0.003  0.003  0.004
 H          0.001 -0.004  0.002   -0.001 -0.001  0.002    0.000  0.000 -0.001
 C         -0.304 -0.167  0.176   -0.148 -0.080  0.086    0.000  0.000  0.000
 H          0.023 -0.016  0.038    0.002  0.001  0.000   -0.089 -0.033 -0.026
 H         -0.017 -0.035  0.020    0.011 -0.003  0.005    0.716 -0.487  0.486
 H         -0.003 -0.002  0.000   -0.001  0.000  0.000    0.002 -0.002 -0.003
 TransDip  -0.900  0.366  0.169    0.054 -0.131 -0.194    0.110 -0.644  0.308

 Mode:                37                     38                     39
 Frequency:      3731.11                4371.88                4375.83
 Force Cnst:      8.7395                11.3494                11.3700
 Red. Mass:       1.0655                 1.0078                 1.0078
 IR Active:          YES                    YES                    YES
 IR Intens:       16.586                 52.173                100.790
 Raman Active:       YES                    YES                    YES
               X      Y      Z        X      Y      Z        X      Y      Z
 C          0.000  0.001  0.000    0.000  0.000  0.000    0.000  0.000  0.000
 O          0.000 -0.001  0.000    0.000  0.000  0.000    0.000  0.000  0.000
 O          0.000  0.000  0.000    0.000  0.000  0.000    0.000  0.000  0.000
 C          0.000  0.000  0.000    0.000  0.000  0.000    0.000  0.000  0.000
 O         -0.050 -0.036 -0.008    0.000  0.000  0.000    0.000  0.000  0.000
 C          0.000  0.000  0.000    0.000  0.000  0.000    0.000  0.000  0.000
 O          0.000  0.000  0.000    0.000  0.000  0.000    0.000  0.000  0.000
 C         -0.001  0.000  0.000    0.000  0.000  0.000    0.000  0.000  0.000
 H          0.000  0.000  0.000    0.147 -0.460 -0.502    0.025 -0.078 -0.085
 H          0.001 -0.001 -0.002    0.048 -0.057 -0.091   -0.283  0.341  0.541
 H          0.000  0.000  0.000   -0.147  0.462  0.502   -0.025  0.078  0.085
 C          0.000  0.000  0.000    0.000  0.000  0.000    0.000  0.000  0.000
 H          0.757  0.638  0.091   -0.001 -0.001  0.000    0.003  0.003  0.001
 H          0.033 -0.067  0.038    0.001 -0.001  0.001   -0.005  0.004 -0.003
 H         -0.001  0.001  0.002   -0.047  0.057  0.091    0.280 -0.340 -0.538
 TransDip   0.077  0.099  0.035    0.118 -0.135 -0.147    0.109 -0.191 -0.234

 STANDARD THERMODYNAMIC QUANTITIES AT   298.15 K  AND     1.00 ATM

   This Molecule has  1 Imaginary Frequencies
   Zero point vibrational energy:       48.339 kcal/mol

   Atom    1 Element C  Has Mass   12.00000
   Atom    2 Element O  Has Mass   15.99491
   Atom    3 Element O  Has Mass   15.99491
   Atom    4 Element C  Has Mass   12.00000
   Atom    5 Element O  Has Mass   15.99491
   Atom    6 Element C  Has Mass   12.00000
   Atom    7 Element O  Has Mass   15.99491
   Atom    8 Element C  Has Mass   12.00000
   Atom    9 Element H  Has Mass    1.00783
   Atom   10 Element H  Has Mass    1.00783
   Atom   11 Element H  Has Mass    1.00783
   Atom   12 Element C  Has Mass   12.00000
   Atom   13 Element H  Has Mass    1.00783
   Atom   14 Element H  Has Mass    1.00783
   Atom   15 Element H  Has Mass    1.00783
   Molecular Mass:   130.026620 amu
   Principal axes and moments of inertia in amu*Bohr^2:
                             1           2           3
    Eigenvalues --     1334.59323  2066.12360  2817.28538
          X               0.99462    -0.08553    -0.05849
          Y               0.09044     0.99208     0.08717
          Z               0.05058    -0.09199     0.99447
   Rotational Symmetry Number is   1
   The Molecule is an Asymmetric Top
   Translational Enthalpy:        0.889 kcal/mol
   Rotational Enthalpy:           0.889 kcal/mol
   Vibrational Enthalpy:         57.294 kcal/mol
   gas constant (RT):             0.592 kcal/mol
   Translational Entropy:        40.501  cal/mol.K
   Rotational Entropy:           30.430  cal/mol.K
   Vibrational Entropy:          70.149  cal/mol.K

   Total Enthalpy:               59.664 kcal/mol
   Total Entropy:               141.080  cal/mol.K
Archival summary:
1\1\bt2600-16\FREQ\ProcedureUnspecified\6-31+G*\456(2-,1)\emavera\MonMay820:55:012017MonMay820:55:012017\0\\#,FREQ,ProcedureUnspecified,6-31+G*,\\-2,1\O\C,1,1.22581\C,2,1.30083,1,177.884\C,1,2.44136,2,108.794,3,71.9818,0\C,4,1.27821,1,78.3447,2,117.114,0\C,5,1.47299,4,167.409,1,152.111,0\O,6,1.2643,5,114.862,4,54.0452,0\O,6,1.27009,5,118.306,4,-124.095,0\H,8,1.90927,6,137.312,5,19.8611,0\O,9,0.989667,8,165.63,6,-50.1194,0\H,10,0.974156,9,99.5133,8,12.8725,0\H,10,2.59676,9,97.2413,8,-82.1447,0\H,12,0.746566,10,177.359,9,-144.799,0\H,3,3.43638,2,84.644,1,153.625,0\H,14,0.747501,3,162.678,2,-171.091,0\\\@

 Total job time:  2209.85s(wall), 2209.85s(cpu) 
 Mon May  8 20:55:01 2017

        *************************************************************
        *                                                           *
        *  Thank you very much for using Q-Chem.  Have a nice day.  *
        *                                                           *
        *************************************************************


0 sent ACK to 0 
now end server 0 ... 
cleanup process ... done
