Jobname.Temp
FREQ      R                             6-31+G(d)           
Number of atoms                            I               15
Charge                                     I               -2
Multiplicity                               I                1
Number of electrons                        I               70
Number of alpha electrons                  I               35
Number of beta electrons                   I               35
Atomic numbers                             I   N=          15
           6           8           8           6           8           6
           8           6           1           1           1           6
           1           1           1
Current cartesian coordinates              R   N=          45
  2.97740080E+00 -1.27419715E-01  5.66738716E-01  3.75223435E+00  1.88655466E+00
  1.53921251E+00  4.14420626E+00 -2.21925248E+00  6.82746499E-01  4.40150815E-01
 -5.74187694E-01 -1.06643707E+00 -9.37364127E-01  3.04408489E+00 -1.45426024E+00
  7.60146196E-01 -1.88267422E+00 -3.03527842E+00 -2.19963911E+00 -5.94567319E-01
 -3.21912899E-02 -3.97926277E+00 -1.58283949E+00 -1.29308898E+00 -2.84118445E+00
 -5.54140792E-02  2.76188961E+00 -2.60242293E+00  1.90785378E+00  3.36795478E+00
 -1.68443332E+00 -1.24490187E+00  4.01256749E+00 -4.83766128E+00 -5.99054824E-01
  2.97319863E+00 -1.74280198E+00  2.99189533E+00 -3.34844212E+00  8.80790926E-01
  4.01743578E+00 -1.37309498E+00 -2.25008983E+00  4.04562875E+00 -1.75731880E-01
Nuclear charges                            R   N=          15
  6.00000000E+00  8.00000000E+00  8.00000000E+00  6.00000000E+00  8.00000000E+00
  6.00000000E+00  8.00000000E+00  6.00000000E+00  1.00000000E+00  1.00000000E+00
  1.00000000E+00  6.00000000E+00  1.00000000E+00  1.00000000E+00  1.00000000E+00
Number of basis functions                  I              183
Number of contracted shells                I               57
Number of primitive shells                 I              132
Highest angular momentum                   I                2
Largest degree of contraction              I                6
Shell types                                I   N=          57
           0          -1          -1          -1           2           0
          -1          -1          -1           2           0          -1
          -1          -1           2           0          -1          -1
          -1           2           0          -1          -1          -1
           2           0          -1          -1          -1           2
           0          -1          -1          -1           2           0
          -1          -1          -1           2           0           0
           0           0           0           0           0          -1
          -1          -1           2           0           0           0
           0           0           0
Number of primitives per shell             I   N=          57
           6           3           1           1           1           6
           3           1           1           1           6           3
           1           1           1           6           3           1
           1           1           6           3           1           1
           1           6           3           1           1           1
           6           3           1           1           1           6
           3           1           1           1           3           1
           3           1           3           1           6           3
           1           1           1           3           1           3
           1           3           1
Shell to atom map                          I   N=          57
           1           1           1           1           1           2
           2           2           2           2           3           3
           3           3           3           4           4           4
           4           4           5           5           5           5
           5           6           6           6           6           6
           7           7           7           7           7           8
           8           8           8           8           9           9
          10          10          11          11          12          12
          12          12          12          13          13          14
          14          15          15
Primitive exponents                        R   N=         132
  3.04752490E+03  4.57369510E+02  1.03948690E+02  2.92101550E+01  9.28666300E+00
  3.16392700E+00  7.86827240E+00  1.88128850E+00  5.44249300E-01  1.68714400E-01
  4.38000000E-02  8.00000000E-01  5.48467170E+03  8.25234950E+02  1.88046960E+02
  5.29645000E+01  1.68975700E+01  5.79963530E+00  1.55396160E+01  3.59993360E+00
  1.01376180E+00  2.70005800E-01  8.45000000E-02  8.00000000E-01  5.48467170E+03
  8.25234950E+02  1.88046960E+02  5.29645000E+01  1.68975700E+01  5.79963530E+00
  1.55396160E+01  3.59993360E+00  1.01376180E+00  2.70005800E-01  8.45000000E-02
  8.00000000E-01  3.04752490E+03  4.57369510E+02  1.03948690E+02  2.92101550E+01
  9.28666300E+00  3.16392700E+00  7.86827240E+00  1.88128850E+00  5.44249300E-01
  1.68714400E-01  4.38000000E-02  8.00000000E-01  5.48467170E+03  8.25234950E+02
  1.88046960E+02  5.29645000E+01  1.68975700E+01  5.79963530E+00  1.55396160E+01
  3.59993360E+00  1.01376180E+00  2.70005800E-01  8.45000000E-02  8.00000000E-01
  3.04752490E+03  4.57369510E+02  1.03948690E+02  2.92101550E+01  9.28666300E+00
  3.16392700E+00  7.86827240E+00  1.88128850E+00  5.44249300E-01  1.68714400E-01
  4.38000000E-02  8.00000000E-01  5.48467170E+03  8.25234950E+02  1.88046960E+02
  5.29645000E+01  1.68975700E+01  5.79963530E+00  1.55396160E+01  3.59993360E+00
  1.01376180E+00  2.70005800E-01  8.45000000E-02  8.00000000E-01  3.04752490E+03
  4.57369510E+02  1.03948690E+02  2.92101550E+01  9.28666300E+00  3.16392700E+00
  7.86827240E+00  1.88128850E+00  5.44249300E-01  1.68714400E-01  4.38000000E-02
  8.00000000E-01  1.87311370E+01  2.82539370E+00  6.40121700E-01  1.61277800E-01
  1.87311370E+01  2.82539370E+00  6.40121700E-01  1.61277800E-01  1.87311370E+01
  2.82539370E+00  6.40121700E-01  1.61277800E-01  3.04752490E+03  4.57369510E+02
  1.03948690E+02  2.92101550E+01  9.28666300E+00  3.16392700E+00  7.86827240E+00
  1.88128850E+00  5.44249300E-01  1.68714400E-01  4.38000000E-02  8.00000000E-01
  1.87311370E+01  2.82539370E+00  6.40121700E-01  1.61277800E-01  1.87311370E+01
  2.82539370E+00  6.40121700E-01  1.61277800E-01  1.87311370E+01  2.82539370E+00
  6.40121700E-01  1.61277800E-01
Contraction coefficients                   R   N=         132
  3.17779390E-03  2.43133190E-02  1.19238892E-01  4.02155213E-01  8.10498179E-01
  6.27542848E-01 -1.19332409E-01 -1.60854212E-01  1.14345648E+00  1.00000000E+00
  1.00000000E+00  1.00000000E+00  3.17155790E-03  2.41622794E-02  1.18550378E-01
  4.03072948E-01  8.14398079E-01  6.20976348E-01 -1.10777504E-01 -1.48026305E-01
  1.13076704E+00  1.00000000E+00  1.00000000E+00  1.00000000E+00  3.17155790E-03
  2.41622794E-02  1.18550378E-01  4.03072948E-01  8.14398079E-01  6.20976348E-01
 -1.10777504E-01 -1.48026305E-01  1.13076704E+00  1.00000000E+00  1.00000000E+00
  1.00000000E+00  3.17779390E-03  2.43133190E-02  1.19238892E-01  4.02155213E-01
  8.10498179E-01  6.27542848E-01 -1.19332409E-01 -1.60854212E-01  1.14345648E+00
  1.00000000E+00  1.00000000E+00  1.00000000E+00  3.17155790E-03  2.41622794E-02
  1.18550378E-01  4.03072948E-01  8.14398079E-01  6.20976348E-01 -1.10777504E-01
 -1.48026305E-01  1.13076704E+00  1.00000000E+00  1.00000000E+00  1.00000000E+00
  3.17779390E-03  2.43133190E-02  1.19238892E-01  4.02155213E-01  8.10498179E-01
  6.27542848E-01 -1.19332409E-01 -1.60854212E-01  1.14345648E+00  1.00000000E+00
  1.00000000E+00  1.00000000E+00  3.17155790E-03  2.41622794E-02  1.18550378E-01
  4.03072948E-01  8.14398079E-01  6.20976348E-01 -1.10777504E-01 -1.48026305E-01
  1.13076704E+00  1.00000000E+00  1.00000000E+00  1.00000000E+00  3.17779390E-03
  2.43133190E-02  1.19238892E-01  4.02155213E-01  8.10498179E-01  6.27542848E-01
 -1.19332409E-01 -1.60854212E-01  1.14345648E+00  1.00000000E+00  1.00000000E+00
  1.00000000E+00  5.80143482E-02  4.06558998E-01  1.40946902E+00  1.73205081E+00
  5.80143482E-02  4.06558998E-01  1.40946902E+00  1.73205081E+00  5.80143482E-02
  4.06558998E-01  1.40946902E+00  1.73205081E+00  3.17779390E-03  2.43133190E-02
  1.19238892E-01  4.02155213E-01  8.10498179E-01  6.27542848E-01 -1.19332409E-01
 -1.60854212E-01  1.14345648E+00  1.00000000E+00  1.00000000E+00  1.00000000E+00
  5.80143482E-02  4.06558998E-01  1.40946902E+00  1.73205081E+00  5.80143482E-02
  4.06558998E-01  1.40946902E+00  1.73205081E+00  5.80143482E-02  4.06558998E-01
  1.40946902E+00  1.73205081E+00
P(S=P) Contraction coefficients            R   N=         132
  0.00000000E+00  0.00000000E+00  0.00000000E+00  0.00000000E+00  0.00000000E+00
  0.00000000E+00  1.19509939E-01  5.48062410E-01  1.28917971E+00  1.73205081E+00
  1.73205081E+00  0.00000000E+00  0.00000000E+00  0.00000000E+00  0.00000000E+00
  0.00000000E+00  0.00000000E+00  0.00000000E+00  1.22757888E-01  5.88469108E-01
  1.25947563E+00  1.73205081E+00  1.73205081E+00  0.00000000E+00  0.00000000E+00
  0.00000000E+00  0.00000000E+00  0.00000000E+00  0.00000000E+00  0.00000000E+00
  1.22757888E-01  5.88469108E-01  1.25947563E+00  1.73205081E+00  1.73205081E+00
  0.00000000E+00  0.00000000E+00  0.00000000E+00  0.00000000E+00  0.00000000E+00
  0.00000000E+00  0.00000000E+00  1.19509939E-01  5.48062410E-01  1.28917971E+00
  1.73205081E+00  1.73205081E+00  0.00000000E+00  0.00000000E+00  0.00000000E+00
  0.00000000E+00  0.00000000E+00  0.00000000E+00  0.00000000E+00  1.22757888E-01
  5.88469108E-01  1.25947563E+00  1.73205081E+00  1.73205081E+00  0.00000000E+00
  0.00000000E+00  0.00000000E+00  0.00000000E+00  0.00000000E+00  0.00000000E+00
  0.00000000E+00  1.19509939E-01  5.48062410E-01  1.28917971E+00  1.73205081E+00
  1.73205081E+00  0.00000000E+00  0.00000000E+00  0.00000000E+00  0.00000000E+00
  0.00000000E+00  0.00000000E+00  0.00000000E+00  1.22757888E-01  5.88469108E-01
  1.25947563E+00  1.73205081E+00  1.73205081E+00  0.00000000E+00  0.00000000E+00
  0.00000000E+00  0.00000000E+00  0.00000000E+00  0.00000000E+00  0.00000000E+00
  1.19509939E-01  5.48062410E-01  1.28917971E+00  1.73205081E+00  1.73205081E+00
  0.00000000E+00  0.00000000E+00  0.00000000E+00  0.00000000E+00  0.00000000E+00
  0.00000000E+00  0.00000000E+00  0.00000000E+00  0.00000000E+00  0.00000000E+00
  0.00000000E+00  0.00000000E+00  0.00000000E+00  0.00000000E+00  0.00000000E+00
  0.00000000E+00  0.00000000E+00  0.00000000E+00  0.00000000E+00  1.19509939E-01
  5.48062410E-01  1.28917971E+00  1.73205081E+00  1.73205081E+00  0.00000000E+00
  0.00000000E+00  0.00000000E+00  0.00000000E+00  0.00000000E+00  0.00000000E+00
  0.00000000E+00  0.00000000E+00  0.00000000E+00  0.00000000E+00  0.00000000E+00
  0.00000000E+00  0.00000000E+00
Coordinates of each shell                  R   N=         171
  2.97740080E+00 -1.27419715E-01  5.66738716E-01  2.97740080E+00 -1.27419715E-01
  5.66738716E-01  2.97740080E+00 -1.27419715E-01  5.66738716E-01  2.97740080E+00
 -1.27419715E-01  5.66738716E-01  2.97740080E+00 -1.27419715E-01  5.66738716E-01
  3.75223435E+00  1.88655466E+00  1.53921251E+00  3.75223435E+00  1.88655466E+00
  1.53921251E+00  3.75223435E+00  1.88655466E+00  1.53921251E+00  3.75223435E+00
  1.88655466E+00  1.53921251E+00  3.75223435E+00  1.88655466E+00  1.53921251E+00
  4.14420626E+00 -2.21925248E+00  6.82746499E-01  4.14420626E+00 -2.21925248E+00
  6.82746499E-01  4.14420626E+00 -2.21925248E+00  6.82746499E-01  4.14420626E+00
 -2.21925248E+00  6.82746499E-01  4.14420626E+00 -2.21925248E+00  6.82746499E-01
  4.40150815E-01 -5.74187694E-01 -1.06643707E+00  4.40150815E-01 -5.74187694E-01
 -1.06643707E+00  4.40150815E-01 -5.74187694E-01 -1.06643707E+00  4.40150815E-01
 -5.74187694E-01 -1.06643707E+00  4.40150815E-01 -5.74187694E-01 -1.06643707E+00
 -9.37364127E-01  3.04408489E+00 -1.45426024E+00 -9.37364127E-01  3.04408489E+00
 -1.45426024E+00 -9.37364127E-01  3.04408489E+00 -1.45426024E+00 -9.37364127E-01
  3.04408489E+00 -1.45426024E+00 -9.37364127E-01  3.04408489E+00 -1.45426024E+00
  7.60146196E-01 -1.88267422E+00 -3.03527842E+00  7.60146196E-01 -1.88267422E+00
 -3.03527842E+00  7.60146196E-01 -1.88267422E+00 -3.03527842E+00  7.60146196E-01
 -1.88267422E+00 -3.03527842E+00  7.60146196E-01 -1.88267422E+00 -3.03527842E+00
 -2.19963911E+00 -5.94567319E-01 -3.21912899E-02 -2.19963911E+00 -5.94567319E-01
 -3.21912899E-02 -2.19963911E+00 -5.94567319E-01 -3.21912899E-02 -2.19963911E+00
 -5.94567319E-01 -3.21912899E-02 -2.19963911E+00 -5.94567319E-01 -3.21912899E-02
 -3.97926277E+00 -1.58283949E+00 -1.29308898E+00 -3.97926277E+00 -1.58283949E+00
 -1.29308898E+00 -3.97926277E+00 -1.58283949E+00 -1.29308898E+00 -3.97926277E+00
 -1.58283949E+00 -1.29308898E+00 -3.97926277E+00 -1.58283949E+00 -1.29308898E+00
 -2.84118445E+00 -5.54140792E-02  2.76188961E+00 -2.84118445E+00 -5.54140792E-02
  2.76188961E+00 -2.60242293E+00  1.90785378E+00  3.36795478E+00 -2.60242293E+00
  1.90785378E+00  3.36795478E+00 -1.68443332E+00 -1.24490187E+00  4.01256749E+00
 -1.68443332E+00 -1.24490187E+00  4.01256749E+00 -4.83766128E+00 -5.99054824E-01
  2.97319863E+00 -4.83766128E+00 -5.99054824E-01  2.97319863E+00 -4.83766128E+00
 -5.99054824E-01  2.97319863E+00 -4.83766128E+00 -5.99054824E-01  2.97319863E+00
 -4.83766128E+00 -5.99054824E-01  2.97319863E+00 -1.74280198E+00  2.99189533E+00
 -3.34844212E+00 -1.74280198E+00  2.99189533E+00 -3.34844212E+00  8.80790926E-01
  4.01743578E+00 -1.37309498E+00  8.80790926E-01  4.01743578E+00 -1.37309498E+00
 -2.25008983E+00  4.04562875E+00 -1.75731880E-01 -2.25008983E+00  4.04562875E+00
 -1.75731880E-01
SCF Energy                                 R     -4.941457258697408E+02
Number of independent functions            I              183
Alpha MO coefficients                      R   N=       33489
  8.64440226E-06 -1.96874703E-05 -1.55264866E-05 -1.07515884E-05 -2.10932497E-05
  1.54489311E-06 -4.82250666E-05 -2.16341431E-04 -8.00091748E-05 -1.97985246E-03
  8.69471617E-04 -8.66411082E-04  2.70165384E-04  5.32722659E-05  5.14181131E-05
  2.98366052E-05 -4.37570537E-05  1.55832040E-05 -1.63064454E-05 -1.18427140E-05
 -4.79613973E-05  1.18161066E-05  3.97428030E-06  6.14991482E-06  1.68108662E-04
 -1.26968013E-04 -4.82558402E-05 -8.18788039E-05  3.48960019E-04  6.12108477E-05
  8.61426156E-05 -3.44410554E-05  7.32270974E-06 -1.68747433E-05 -1.58138328E-05
 -1.99446165E-05  3.54196987E-05 -9.40541051E-06  1.22870695E-05  6.08755841E-05
 -1.57680271E-05 -2.14592779E-07 -1.09731953E-05 -3.25003361E-04  1.45041515E-04
 -1.04132138E-04  6.67276762E-05 -2.02162412E-05 -2.49526746E-06 -2.32097020E-06
 -1.01756104E-04  2.50499186E-05  1.48879471E-05  4.89377042E-05  2.63665189E-05
 -3.67128499E-06  7.03134182E-06 -6.26992108E-06  8.79479428E-05  5.04916029E-05
 -8.22018026E-05  3.16896967E-05  8.43499707E-04 -4.79434358E-04 -1.27832054E-04
  1.13711073E-04  2.61257682E-02 -4.45674641E-03  1.84869348E-03 -3.40402854E-03
 -2.70341803E-05 -2.29384912E-04 -4.15864688E-05  7.20150429E-05 -2.23481347E-05
  3.32140785E-05  9.92511770E-01  2.49653291E-02 -6.56994335E-06  7.53323194E-04
 -2.86476644E-04  1.65425543E-02  1.82881799E-05 -8.93690130E-04  2.42248813E-04
 -8.96448697E-03 -4.73349751E-04  1.95693956E-03  1.23947279E-05 -8.86233330E-03
 -8.78960622E-03 -8.85606254E-03 -5.94749831E-06 -4.60270818E-06 -2.32926214E-05
  7.37301773E-09 -4.49610046E-05 -1.08086715E-05  3.08385910E-05  9.10052685E-06
 -8.87284762E-05 -5.91961766E-05  9.44627633E-05  2.25094510E-05 -1.44607927E-02
  1.53646627E-03 -2.71749813E-03 -1.93178993E-03  7.92813168E-06  5.52156680E-05
  1.29067305E-05 -2.05706822E-05 -6.00742714E-06  1.32042940E-05  8.28318509E-06
  6.76026109E-05 -7.61105138E-06  1.59111907E-05 -1.27652492E-05  1.32642403E-04
  3.48779120E-05 -1.71078391E-04  1.89218428E-04 -4.01576476E-03 -1.94824580E-03
  5.00958290E-04  8.96504677E-04 -9.43929821E-06 -1.56430976E-04 -6.83096192E-06
 -6.42869709E-05  2.22889755E-05  7.83673782E-05 -7.04812339E-06 -8.61316906E-05
  9.37033808E-06  3.90199671E-05 -6.13911771E-07  3.69839040E-04  3.92244770E-04
  1.26091613E-04 -2.76887014E-05 -2.93296221E-03 -6.78705803E-04 -5.87135573E-04
 -1.97044813E-04  2.52029250E-05  4.54120335E-05 -9.32865050E-06  4.87725305E-05
  3.80180847E-06 -1.62211935E-05 -3.37333607E-05  5.32318029E-04  1.54079732E-05
 -1.92482621E-04 -2.05953436E-06 -2.76037815E-04  1.40104776E-05  7.20465031E-05
 -1.09035699E-05 -1.28616917E-06 -1.02008329E-06 -7.19248492E-04 -1.90122289E-04
 -7.29043800E-05  1.83630687E-04 -5.36352809E-04 -2.13921021E-04 -6.09632879E-05
  1.33678082E-04  9.55534794E-06  1.88261586E-05  5.87832121E-06 -2.12313032E-07
  6.67768400E-06 -4.81931487E-06  1.63297513E-04 -2.16128595E-04  2.01276773E-04
 -2.79699321E-04  1.88725097E-04 -5.79993881E-04 -1.45032782E-05 -1.10435983E-04
 -2.12605244E-05  1.59336446E-05 -2.74892168E-05  2.65013944E-04 -1.01482841E-03
  2.52211452E-04 -1.11598287E-04 -6.34811400E-03  1.64222640E-03  2.30972834E-04
  3.35212643E-04  7.20034666E-05 -1.74875705E-05 -4.05603870E-05  1.38110134E-05
  2.40218312E-06  1.81757933E-06  6.45454285E-06  3.31672702E-05 -7.29430725E-06
  8.18194025E-06  9.87674750E-06 -2.28070104E-04  1.86499362E-04 -7.89749859E-05
 -2.37304188E-05  4.41456081E-04 -1.44505938E-04 -1.77092248E-04  1.51596958E-05
  8.18220550E-06  3.66599391E-05 -7.40710619E-06 -1.26817639E-05 -6.81644504E-06
  1.70273298E-05 -1.19750204E-05 -6.07351662E-05  1.17430972E-05 -2.27257123E-05
  4.76817658E-06  3.38634476E-04 -2.31478828E-05  2.52177200E-04 -1.72644216E-05
  6.46159862E-04 -8.58117199E-05  1.08306055E-04 -9.84712884E-05 -3.76658801E-05
 -6.04405288E-06 -6.15543103E-05 -1.15923934E-05  1.39836673E-05 -7.77273421E-06
 -3.51931612E-05 -2.19606835E-04 -1.36493684E-04  2.02744072E-05  6.40246977E-05
 -2.54267278E-04 -4.28572036E-04 -4.81276064E-04 -7.90033616E-04  9.78819716E-03
  6.36760902E-04  6.04522088E-04  2.70023372E-03  4.59820326E-04  5.16340204E-06
  9.45135956E-06  2.32712833E-05 -2.16124566E-04 -1.56580597E-05 -2.20451945E-05
  2.95293961E-05 -2.10283329E-05  2.25625577E-06 -1.47821278E-07  2.67225970E-04
  2.01235591E-04  1.60695566E-04 -3.56006860E-05  3.95606028E-04 -1.99827312E-04
 -5.02795422E-04  1.09985548E-04 -3.13599683E-06 -1.71941715E-04 -3.68174283E-05
 -7.11496651E-05  5.19720124E-05  6.56316119E-05  4.02579549E-06  1.28974626E-04
  2.75232367E-05  9.05271886E-06 -1.11354302E-06 -4.66268088E-04  2.00161950E-05
 -1.84701771E-04 -2.01604222E-04 -1.59705739E-03  1.77049646E-04 -1.71186696E-04
 -7.91244075E-04 -8.35386133E-05 -1.20855507E-05 -4.06843496E-05  6.85844931E-06
  4.02223865E-05 -3.03339179E-05  9.92451783E-01  2.50294691E-02 -1.38086166E-04
 -5.58307720E-04 -9.84462072E-04  1.68198658E-02  2.53539941E-04  6.92248309E-04
  1.23218617E-03 -7.86979712E-03 -1.27321565E-03 -9.97145655E-04 -8.93124490E-04
 -9.20976555E-03 -8.98402913E-03 -9.01686573E-03 -5.33400269E-05 -1.66847583E-05
 -6.28118496E-05  1.36339722E-05  4.18095623E-04  4.46396212E-04  2.20441725E-04
  2.61330659E-04 -5.76905925E-04 -3.28833690E-04 -2.01762460E-04 -2.70141700E-04
  1.06453278E-03  4.42515875E-04  2.44103236E-04  2.70921871E-04  3.10004805E-05
 -9.01558543E-05 -7.54630021E-05  8.41732252E-05  1.10036784E-04  5.24526026E-05
 -1.52051080E-04 -1.04260444E-03  1.09432167E-04  6.11853863E-04  7.80351801E-05
  6.59609468E-04 -6.03416498E-06  8.18145095E-05 -1.64656384E-05  1.49191942E-05
  1.07187948E-04  8.40648359E-04  1.29827125E-04  8.89555073E-05 -1.61006935E-06
 -8.32574173E-04 -3.24027783E-04 -4.57789847E-05  6.31459162E-05 -6.86073190E-05
 -1.03682007E-05 -1.77132390E-04  2.61403099E-05  1.60867537E-04 -3.09353823E-07
  3.55560631E-05 -1.46503629E-04 -5.40824287E-05 -1.66039210E-04  7.99562414E-05
  1.30120192E-05 -2.74443776E-05  3.69988431E-04  1.28478464E-04  2.93536506E-04
  1.59989901E-04  4.04915225E-04 -1.27366733E-04 -6.75704553E-04 -2.82299268E-04
  8.85309352E-03 -1.65328553E-03  2.47123412E-03  3.36872701E-05 -1.59020497E-04
 -2.79651182E-04 -2.00711406E-04 -4.72391275E-05 -3.10838650E-06 -5.58305665E-05
  9.92572478E-01  2.51722878E-02 -3.95555423E-04 -8.84419613E-04 -5.31852327E-04
  1.55775904E-02  4.53808691E-05  4.08778653E-04  2.02691897E-04 -7.70001899E-03
  4.72877504E-04  4.60037602E-05  1.59695392E-04 -8.62406983E-03 -8.64284026E-03
 -8.62826135E-03  2.48716055E-06  4.62884277E-06 -6.39354726E-06 -1.34605481E-04
  1.13972675E-04 -4.91261840E-06 -9.29135807E-07 -1.28305222E-05 -5.08113939E-04
  2.48735489E-07 -5.99164730E-05  3.85423277E-05  4.89345761E-04  3.03334516E-04
 -2.82009766E-05  7.59424056E-06  1.05746763E-04 -5.24394236E-05  6.01720570E-05
 -3.98135501E-05  2.00899945E-05 -5.34614764E-05  2.32413472E-06 -2.30133706E-06
  1.99458075E-05  5.86914056E-06  1.60893501E-05  1.61741333E-05  8.02232490E-06
  5.46569974E-05 -1.55872579E-04  1.69956109E-03 -2.48677269E-03 -2.57360815E-03
 -3.22118774E-03  9.53628942E-06  9.96399872E-06  1.87274376E-05 -9.45330005E-06
  2.76186384E-06  2.12375952E-07  1.08802478E-05  3.25918071E-06  5.15571006E-06
 -4.86928226E-06 -5.00719151E-07 -1.24980446E-04 -6.44842524E-06  4.93630364E-06
  3.30828082E-05  4.33165407E-04 -1.57961211E-04 -2.37669728E-04  3.19652158E-04
  2.95676947E-05  7.96922846E-06  1.65358294E-05 -2.24456707E-05  2.51190966E-05
 -2.69407444E-06  7.85109607E-07  1.72711732E-05 -9.32975434E-06 -1.62570663E-05
 -4.55931687E-06 -8.90291764E-05 -8.96316474E-05 -4.05063162E-05 -3.74186807E-05
 -6.35331781E-03  7.58215031E-04 -7.61613704E-04 -8.15681938E-04  6.52520606E-08
 -9.59014934E-06 -1.03049925E-05 -2.10644466E-06 -2.38669700E-05 -9.81703750E-06
 -3.13066152E-06 -5.61793583E-06 -1.97289125E-05  7.12700382E-06  8.43350906E-06
 -8.49106462E-06  1.48072117E-04 -3.88466371E-05 -4.28355867E-05 -1.36006415E-03
  7.54787914E-05  2.34977780E-04  8.83953830E-04  1.19942440E-06 -1.20926893E-05
 -1.55794838E-05 -6.13908820E-06 -3.91177749E-06 -4.80456443E-08 -2.01709679E-05
 -7.84847478E-05  6.10924483E-06  1.24649484E-05  8.24339685E-06  8.19645553E-04
  1.46113099E-04  6.84523455E-05  5.88637574E-05 -6.30898360E-04 -1.74467158E-04
  2.18980819E-05 -4.04081004E-05 -3.03580192E-05 -3.05105644E-05 -2.89691825E-05
  6.33542278E-06  5.52554669E-06  7.95932034E-06 -3.06718708E-05  4.71359034E-05
 -2.66732858E-05 -1.39273631E-04 -8.81348937E-06 -1.67672241E-04 -4.21341307E-06
 -1.69213644E-05  1.57192810E-06 -5.42850404E-07 -1.47468436E-05  5.17416572E-05
 -1.54560260E-06  2.50430189E-06  4.96560950E-05 -2.61814941E-04 -1.77484545E-04
 -4.55979403E-05  1.55190033E-05 -2.09018859E-06 -9.31126489E-06 -7.39968351E-06
  7.80378969E-07  1.29773444E-06 -2.78633785E-07 -7.51641438E-06  4.45743403E-05
  3.24061879E-05  1.86858630E-04  3.91907601E-06 -2.90106186E-04 -2.93231601E-05
  3.26911103E-04  1.72547034E-04 -3.25599172E-04  1.13274826E-05  4.98029195E-04
 -3.37288082E-05  6.00624689E-04  1.09423889E-04  6.53253944E-03 -5.83702310E-04
 -2.78161255E-03 -1.11110553E-03 -1.33253238E-04 -2.04731651E-04 -1.47809714E-04
  3.83160651E-05  4.04340623E-05  1.32666719E-05  1.67940559E-04  1.05227645E-04
 -5.17387996E-06  8.95568173E-06  5.94622046E-07 -4.21260428E-04 -2.76467861E-05
  6.22012609E-05  1.48173815E-06  1.57607738E-04  3.62781816E-04  2.00268786E-04
  2.47768484E-04  7.74428309E-05 -8.03233984E-05  6.71344570E-05  5.98054777E-05
  3.50230534E-05 -7.17649801E-06  9.92580285E-01  2.52057594E-02 -4.56380515E-04
  9.54579551E-04 -4.48726665E-05  1.53215271E-02  1.00275587E-04 -5.14427053E-04
 -2.77422118E-05 -7.65712470E-03  4.58054182E-04 -1.36624903E-04  1.21006612E-04
 -8.59976634E-03 -8.65988569E-03 -8.60301922E-03  2.33369863E-05  1.02696892E-05
 -2.02453055E-06 -8.25173359E-06  6.80568115E-05 -4.44505411E-06 -3.47648041E-06
 -1.33048401E-05  3.22137638E-04 -9.90610508E-05 -2.69785730E-05 -6.25148483E-05
 -3.49085911E-03 -1.36596780E-03  1.45562976E-03  7.04465822E-05 -1.05735240E-04
 -4.11722554E-05 -3.71887390E-05  5.21078155E-05 -4.59961999E-05  1.43092200E-05
  2.37926460E-06  2.93551319E-06  1.01724143E-05 -5.52051516E-06  9.24365813E-06
  6.27073093E-05 -3.67138894E-05  2.88203032E-05 -2.92990735E-05 -1.36847944E-03
  2.51597495E-05  4.03353793E-04  1.61789378E-04  9.46959179E-06 -6.19233671E-06
  1.86655704E-05  3.30738840E-06 -4.93393607E-06  4.43407409E-06  7.88726167E-06
  2.70848819E-05  1.20758803E-05 -9.77087834E-06  1.08865520E-05 -2.82330449E-04
  2.22626384E-04 -7.65120585E-05 -2.17774073E-05  1.77359313E-03 -4.92255529E-04
 -9.60893488E-05  5.18554981E-04  2.31068414E-05  2.01261989E-05  8.73947294E-06
  7.33949379E-07  1.67248742E-05 -1.26947869E-05  4.42073023E-06  3.11151882E-05
 -3.62962567E-06 -4.27105025E-06  2.72683315E-06 -2.07417276E-04 -8.30395882E-05
  1.70070973E-05 -2.17946100E-05  8.87455358E-04 -1.20400891E-04 -2.44028234E-06
 -3.28899210E-04  1.26370974E-05  9.02209078E-06  1.71285799E-05  3.12949331E-06
 -3.34876437E-06 -5.74159337E-06  1.33065501E-05  5.69500030E-05  1.71122033E-05
 -1.20510171E-06  3.44239496E-06 -4.85400418E-04 -1.88668775E-04 -7.07834692E-05
 -4.62485158E-05 -1.21857574E-03 -4.68817223E-04 -1.03949279E-04  5.67304084E-05
  8.49962628E-06  2.18666699E-05  2.20666777E-05 -2.69548452E-06 -4.38107843E-06
 -4.54288507E-06  4.26958748E-06 -1.49476282E-04 -1.38335318E-06  3.10131340E-05
  1.62262136E-05 -1.23319593E-04 -7.60608734E-06 -2.51904899E-05 -3.07394310E-06
  9.65392066E-06 -8.89574514E-06  2.00054395E-04  5.99734831E-05 -3.52033613E-05
  4.62280509E-05 -3.04138895E-04 -1.44515564E-04  2.40010792E-05  6.91000607E-05
 -9.75934646E-06 -1.66421857E-05 -1.61437770E-05 -3.60354613E-07  4.50618772E-06
  2.65455815E-06 -2.28277322E-05  2.59227009E-04  2.46818601E-06  1.59861791E-04
  5.74582519E-06  4.44553077E-05  9.93252260E-01  4.90717010E-02  1.59183424E-04
  2.02458424E-04  1.02981510E-04 -1.73800106E-02  2.23521423E-03  8.29289226E-04
  1.37944465E-03 -1.51712454E-02  3.28141359E-03 -2.02398561E-04  2.44090149E-03
 -8.68684068E-03 -7.81874047E-03 -8.71205283E-03  9.88392026E-07  9.61409696E-05
  2.98145666E-04 -5.73801709E-05  4.16299028E-04  3.48072601E-05  6.58185045E-05
  3.31236512E-05 -2.02437920E-03  1.71502340E-04  8.43420026E-04  3.74466038E-04
  4.84269063E-03 -1.56416323E-03 -1.43975080E-03 -1.43971240E-03  3.18953182E-04
 -3.69141492E-05  3.20600071E-04 -1.52999646E-04 -1.01960431E-04 -2.40882567E-04
 -6.92924271E-05  2.54798930E-04  3.90530430E-05 -5.04795607E-05 -5.59102293E-06
 -6.61441455E-04  3.18730654E-05 -4.35430809E-04 -1.49407286E-05  4.61004831E-03
 -1.65283991E-03  1.53993601E-03 -6.55042618E-04  1.58196060E-04 -5.80356131E-05
  3.12726753E-04  1.93636011E-04 -7.86775102E-05 -6.64162626E-07  7.28834946E-04
  1.84530367E-04 -1.11545669E-04 -1.08165614E-04 -1.14881317E-06  1.40570219E-03
  2.72935947E-03  1.03318612E-03  1.25433780E-03  1.01760966E-02  5.80362982E-03
  2.90652015E-03  2.10867845E-03 -2.95660245E-04 -9.26441231E-05 -1.55957179E-04
 -6.11621947E-05 -1.53333312E-04 -4.19091763E-05 -1.33613251E-05 -3.35729662E-05
 -3.17520709E-05 -2.12677654E-05  5.06810455E-06  3.35257230E-04  5.55471387E-05
  2.41044546E-04 -1.22948716E-04 -4.88555744E-03 -2.12667947E-05  1.05315166E-03
 -7.05908989E-04 -2.84358226E-05 -6.66323538E-05 -5.87626042E-05  4.62621319E-05
  3.96705560E-06  3.25358400E-05  1.51707468E-06 -1.42635325E-04 -6.84373562E-05
 -4.28839071E-05  3.95510328E-05  3.52327272E-04 -2.98585856E-04  2.40180109E-04
  8.74797431E-05 -1.06483153E-03 -2.84460532E-04 -7.59941242E-04 -5.76625953E-04
  7.27585003E-05 -4.94092840E-05  4.35679332E-05 -2.65530147E-05  1.50053628E-05
  6.99176882E-05  8.24615199E-06  4.10431969E-05 -1.26087568E-05  2.78344888E-06
  5.87133936E-05 -4.09704508E-04 -5.85838935E-05 -1.05882538E-04 -4.36031655E-04
  3.35604177E-03  3.17679118E-03  1.62389811E-03 -1.18773739E-03 -2.42083869E-05
 -1.63247347E-05  7.93435970E-05 -2.50737633E-05 -6.43070844E-05  1.03151770E-05
 -1.95183365E-04 -1.01593054E-04 -2.83314986E-05 -7.40594689E-06 -1.08722468E-05
  4.10878913E-04 -3.79712292E-05 -1.09779065E-04  2.87901245E-04  4.47743303E-03
  1.30386374E-03  3.08648783E-04  5.15557599E-04 -3.39241338E-05 -4.92365626E-05
 -1.68745668E-05 -3.46280045E-06  2.95377018E-05  8.06534891E-06  6.71394216E-05
 -1.05944433E-03  8.54200346E-05 -2.07745864E-04  1.50292133E-05 -4.93010650E-05
 -5.30463219E-05 -1.47635052E-04 -2.60495787E-05  8.50663079E-06  1.11031887E-05
  1.24722368E-03  5.47734871E-04  2.38032242E-05 -2.26903674E-04  9.71156699E-05
  1.39352492E-04 -1.58424983E-05 -1.14228446E-05 -1.80713930E-05 -6.58574351E-05
 -6.80479011E-05  8.72687439E-06 -1.62773669E-05  7.93374922E-06 -8.34236904E-06
  4.97078090E-04 -6.95778796E-05  2.52843174E-04 -1.46068420E-05  7.27610447E-04
  1.27513963E-04 -1.90581185E-04  4.67750612E-05  2.50477036E-05 -1.26472352E-05
  8.76898651E-04 -1.96807876E-03  5.95064348E-04 -4.35899544E-04 -1.88673170E-02
  4.23316150E-03 -1.24781196E-03  1.05917392E-03 -3.01127328E-06 -8.35635637E-05
 -8.62370940E-05  4.19537740E-05  1.90259568E-05  2.71814424E-05  4.43953300E-05
  1.94751291E-04 -1.50146621E-05  1.18458569E-05 -1.57107725E-07 -1.15461476E-03
  3.48997621E-04 -1.14674801E-04  8.08174986E-05  1.94282502E-03 -6.42093301E-05
 -4.70652639E-04 -2.84897492E-04  1.09757738E-04  1.71003895E-04  8.94971868E-05
 -4.78804811E-05 -1.31061427E-05  2.13326231E-05 -4.21053899E-05 -1.90562443E-04
 -4.82608586E-06 -3.29031685E-05  9.08593337E-06  1.09211435E-03  9.89651986E-06
  4.61588181E-04 -2.01947237E-05  4.77820452E-04 -4.31208430E-04  1.73359363E-06
 -1.36336862E-04 -1.23320443E-04 -4.27446747E-05 -1.59357726E-04 -6.74339104E-06
  1.44568466E-05  1.38803846E-06 -5.77419565E-06 -1.05030951E-05  1.55851130E-04
 -1.26050661E-05 -2.11757653E-05 -2.01063317E-03 -7.83486760E-04 -5.26871556E-04
 -1.19546244E-03 -2.21824378E-02  6.55833949E-03  1.08059510E-02  1.85737720E-02