
Running Job 1 of 3 ts1040.qcin
qchem ts1040.qcin_32760.0 /tmp/ts1040.qcin/ 1
/programs/x86_64/lib/qchem-4.3.2/bin/mpi/mpirun_qchem -machinefile /var/spool/torque/aux//119444.vali -np 1 /programs/x86_64/lib/qchem-4.3.2/exe/qcprog.exe ts1040.qcin_32760.0 /tmp/ts1040.qcin/

Process 0 of 1 is on bt2600-13.csail.mit.edu - thread support 0
initial socket setup ...start
initial socket setup ...done 
now start server 0 ... 

cmd = ssh thor /programs/x86_64/lib/qchem-4.3.2/bin/get_hostid 823068718 > /tmp/ts1040.qcin/lic.dat
                  Welcome to Q-Chem
     A Quantum Leap Into The Future Of Chemistry


 Q-Chem 4.3, Q-Chem, Inc., Pleasanton, CA (2015)

 Y. Shao,  Z. Gan,  E. Epifanovsky,  A. T. B. Gilbert,  M. Wormit,  
 J. Kussmann,  A. W. Lange,  A. Behn,  J. Deng,  X. Feng,  D. Ghosh,  
 M. Goldey,  P. R. Horn,  L. D. Jacobson,  I. Kaliman,  R. Z. Khaliullin,  
 T. Kus,  A. Landau,  J. Liu,  E. I. Proynov,  Y. M. Rhee,  R. M. Richard,  
 M. A. Rohrdanz,  R. P. Steele,  E. J. Sundstrom,  H. L. Woodcock III,  
 P. M. Zimmerman,  D. Zuev,  B. Albrecht,  E. Alguire,  B. Austin,  
 S. A. Baeppler,  G. J. O. Beran,  Y. A. Bernard,  E. Berquist,  
 K. Brandhorst,  K. B. Bravaya,  S. T. Brown,  D. Casanova,  C.-M. Chang,  
 Y. Chen,  S. H. Chien,  K. D. Closser,  D. L. Crittenden,  M. Diedenhofen,  
 R. A. DiStasio Jr.,  H. Do,  A. D. Dutoi,  R. G. Edgar,  P.-T. Fang,  
 S. Fatehi,  Q. Feng,  L. Fusti-Molnar,  A. Ghysels,  
 A. Golubeva-Zadorozhnaya,  J. Gomes,  A. Gunina,  M. W. D. Hanson-Heine,  
 P. H. P. Harbach,  A. W. Hauser,  E. G. Hohenstein,  Z. C. Holden,  K. Hui,  
 T.-C. Jagau,  H. Ji,  B. Kaduk,  K. Khistyaev,  Jaehoon Kim,  Jihan Kim,  
 R. A. King,  P. Klunzinger,  D. Kosenkov,  T. Kowalczyk,  C. M. Krauter,  
 K. U. Lao,  A. Laurent,  K. V. Lawler,  S. Lehtola,  S. V. Levchenko,  
 C. Y. Lin,  Y.-S. Lin,  F. Liu,  E. Livshits,  R. C. Lochan,  A. Luenser,  
 P. Manohar,  S. F. Manzer,  S.-P. Mao,  N. Mardirossian,  A. V. Marenich,  
 L. A. Martinez-Martinez,  S. A. Maurer,  N. J. Mayhall,  K. Nanda,  
 C. M. Oana,  R. Olivares-Amaya,  D. P. O'Neill,  J. A. Parkhill,  
 T. M. Perrine,  R. Peverati,  P. A. Pieniazek,  F. Plasser,  A. Prociuk,  
 D. R. Rehn,  E. Rosta,  N. J. Russ,  N. Sergueev,  S. M. Sharada,  
 S. Sharma,  D. W. Small,  A. Sodt,  T. Stauch,  T. Stein,  D. Stuck,  
 Y.-C. Su,  A. J. W. Thom,  T. Tsuchimochi,  L. Vogt,  O. Vydrov,  T. Wang,  
 M. A. Watson,  J. Wenzel,  A. White,  C. F. Williams,  V. Vanovschi,  
 S. Yeganeh,  S. R. Yost,  Z.-Q. You,  I. Y. Zhang,  X. Zhang,  Y. Zhao,  
 B. R. Brooks,  G. K. L. Chan,  D. M. Chipman,  C. J. Cramer,  
 W. A. Goddard III,  M. S. Gordon,  W. J. Hehre,  A. Klamt,  
 H. F. Schaefer III,  M. W. Schmidt,  C. D. Sherrill,  D. G. Truhlar,  
 A. Warshel,  X. Xu,  A. Aspuru-Guzik,  R. Baer,  A. T. Bell,  N. A. Besley,  
 J.-D. Chai,  A. Dreuw,  B. D. Dunietz,  T. R. Furlani,  S. R. Gwaltney,  
 C.-P. Hsu,  Y. Jung,  J. Kong,  D. S. Lambrecht,  W. Liang,  C. Ochsenfeld,  
 V. A. Rassolov,  L. V. Slipchenko,  J. E. Subotnik,  T. Van Voorhis,  
 J. M. Herbert,  A. I. Krylov,  P. M. W. Gill,  M. Head-Gordon

 Contributors to earlier versions of Q-Chem not listed above: 
 R. D. Adamson,  J. Baker,  E. F. C. Byrd,  A. K. Chakraborty,  C.-L. Cheng,  
 H. Dachsel,  R. J. Doerksen,  G. Hawkins,  A. Heyden,  S. Hirata,  
 G. Kedziora,  F. J. Keil,  C. Kelley,  P. P. Korambath,  W. Kurlancheek,  
 A. M. Lee,  M. S. Lee,  D. Liotard,  I. Lotan,  P. E. Maslen,  N. Nair,  
 D. Neuhauser,  R. Olson,  B. Peters,  J. Ritchie,  N. E. Schultz,  
 N. Shenvi,  A. C. Simmonett,  K. S. Thanthiriwatte,  Q. Wu,  W. Zhang

 Please cite Q-Chem as follows:
 Y. Shao et al., Mol. Phys. 113, 184-215 (2015)
 DOI: 10.1080/00268976.2014.952696

 Q-Chem 4.3.0 for Intel X86 Linux

 Parts of Q-Chem use Armadillo 5.200.1 (Boston Tea Smuggler).
 http://arma.sourceforge.net/

 Q-Chem begins on Tue Jun  6 16:36:40 2017  

Host: 
0

     Scratch files written to /tmp/ts1040.qcin//
 Oct1215 13750_ 19228  19214 4150   
 Parallel job on  1  processors
Processing $rem in /programs/x86_64/lib/qchem-4.3.2/config/preferences.
 MEM_TOTAL  2000 

Checking the input file for inconsistencies... 	...done.

--------------------------------------------------------------
User input:
--------------------------------------------------------------
$comment
Title
$end

$molecule
-2 1
C         3.465        -1.200          2.601
O         4.560        -1.461          2.068
O         3.273        -1.525          3.830
C         2.346        -0.585          1.791
C         1.972        -2.131          0.363
O         1.201        -0.363          2.379
C         2.491        -0.138          0.460
O         1.493         0.513         -0.063
C         3.826         0.103         -0.195
H         3.702        -0.082         -1.289
H         4.565        -0.673          0.179
H         4.167         1.091          0.224
H         1.093        -1.972         -0.390
H         1.667        -2.696          1.288
H         2.916        -2.475         -0.130
$end


$solvent
CavityRadius    30
Dielectric     78.39
$end

$molecule
READ
$end

$rem
jobtype          FREQ
exchange         b3lyp
basis            6-31+G(d)
pdb_print 2
SOLVENT_METHOD ONSAGER
NBO TRUE
$end

--------------------------------------------------------------
 ----------------------------------------------------------------
             Standard Nuclear Orientation (Angstroms)
    I     Atom           X                Y                Z
 ----------------------------------------------------------------
    1      C       1.4293301925     0.2273593621     0.1297069997
    2      O       1.4365439719     1.4494505540    -0.1104514484
    3      O       2.5473918115    -0.4025488111     0.2077064197
    4      C       0.1215812411    -0.5229553998     0.2450605347
    5      C      -0.6646020805    -0.2883270951    -1.7287787048
    6      O       0.1594700729    -1.8108849057     0.4591983973
    7      C      -1.1459170478     0.0981715298     0.2383953381
    8      O      -2.1780038943    -0.6488641945     0.5030996409
    9      C      -1.3494937467     1.5738267019     0.4627373553
   10      H      -2.2682952398     1.8751176139    -0.0953527831
   11      H      -0.4874433981     2.1405102544    -0.0104559962
   12      H      -1.2391519733     1.7037017571     1.5758155929
   13      H      -1.6722698753    -0.8244766083    -1.9779379208
   14      H       0.2416544703    -0.9017970287    -1.9937856949
   15      H      -0.6431010321     0.7812722769    -2.0574364117
 ----------------------------------------------------------------
 Molecular Point Group                 C1    NOp =  1
 Largest Abelian Subgroup              C1    NOp =  1
 Nuclear Repulsion Energy =   453.3461963531 hartrees
 There are       35 alpha and       35 beta electrons
 Requested basis set is 6-31+G(d)
 There are 57 shells and 183 basis functions

 Total QAlloc Memory Limit   2000 MB
 Mega-Array Size        61 MB
 MEM_STATIC part        62 MB

                       Distance Matrix (Angstroms)
             C (  1)   O (  2)   O (  3)   C (  4)   C (  5)   O (  6)
   O (  2)  1.245486
   O (  3)  1.285663  2.182913
   C (  4)  1.512113  2.397061  2.429084
   C (  5)  2.846832  3.170752  3.752323  2.137563
   O (  6)  2.423953  3.547563  2.783672  1.306160  2.790075
   C (  7)  2.580775  2.935431  3.727223  1.411522  2.061751  2.323206
   O (  8)  3.730958  4.224254  4.741022  2.317440  2.720598  2.610748
   C (  9)  3.105760  2.847107  4.376850  2.570591  2.956254  3.705841
   H ( 10)  4.054404  3.729243  5.335771  3.402667  3.149667  4.448391
   H ( 11)  2.711791  2.046776  3.965472  2.744130  2.980481  4.031451
   H ( 12)  3.375147  3.172931  4.543779  2.929250  3.901106  3.944020
   H ( 13)  3.894669  4.280534  4.770808  2.872375  1.168303  3.204357
   H ( 14)  2.682310  3.240845  3.226800  2.273845  1.126000  2.617313
   H ( 15)  3.063558  2.926113  4.087976  2.754495  1.119161  3.700926
             C (  7)   O (  8)   C (  9)   H ( 10)   H ( 11)   H ( 12)
   O (  8)  1.301282
   C (  9)  1.506430  2.372428
   H ( 10)  2.128064  2.595531  1.116439
   H ( 11)  2.160246  3.301870  1.134977  1.802519
   H ( 12)  2.091677  2.750769  1.126049  1.970107  1.808902
   H ( 13)  2.457735  2.538140  3.436996  3.344725  3.750459  4.382744
   H ( 14)  2.812103  3.486138  3.833402  4.197041  3.704162  4.660844
   H ( 15)  2.447508  3.310221  2.734668  2.772639  2.462090  3.795612
             H ( 13)   H ( 14)
   H ( 14)  1.915551
   H ( 15)  1.908910  1.902516
 
 A cutoff of  1.0D-11 yielded   1558 shell pairs
 There are     16660 function pairs
 
 -------------------------------------------------------
 OpenMP Integral Computing Module                       
 Release: version 1.0, May 2013, Q-Chem Inc. Pittsburgh 
 -------------------------------------------------------
 Integral Job Info:
 Integral job number is                      11
 Integral operator is                         1
 short-range coefficients                     0
 long-range coefficients              100000000
 Omega coefficients                           0
 if combine SR and LR in K                    0
 Integral screening is                        0
 Integral computing path is                   2
 max size of driver memory is            800000
 size of driver memory is                593474
 size of scratch memory is              2260544
 max col of scratch BK array               1296
 max len of scratch array in speh3          155
 max len of scratch index in speh4           18
 max int batch size is                      520
 min int batch size is                       52
 fixed nKL is                                52
 max L of basis functions is                  2
 order of int derivative is                   0
 number of shells is                         57
 number of basis is                         183
 number of cartesian basis is               183
 number of contracted shell pairs          1558
 number of primitive shell pairs           5404
 maxK2 (contraction) of shell pair           36
 max number of K2 of shell pair               1
 max number of CS2 of shell pair            199
 max number of PS2 of shell pair           1194
 mem total for path MDJ                   45544
 -------------------------------------------------------
 Smallest overlap matrix eigenvalue = 1.27E-05
 Placing solute cavity origin at the center of mass
 Center of Onsager solute cavity (Angst): (   0.046230,  -0.036375,   0.034747)
 Solvent multipole matrices computed through 15th order
 Guess from superposition of atomic densities
 Warning:  Energy on first SCF cycle will be non-variational
 A restricted hybrid HF-DFT SCF calculation will be
 performed using Pulay DIIS extrapolation
 Kirkwood-Onsager solvation model will be applied
 Exchange:     0.2000 Hartree-Fock + 0.0800 Slater + 0.7200 B88
 Correlation:  0.1900 VWN1RPA + 0.8100 LYP
 Using SG-1 standard quadrature grid
 SCF converges when DIIS error is below 1.0E-08
 Kirkwood-Onsager SCRF: 
 Maximum multipole order     = 15
 Solvent dielectric constant = 78.3900
 Cavity radius               = 56.6917 bohr
 Born term (E_born)          = -0.03482849 a.u. = -21.8552 kcal/mol
 CPU 0.00 s  wall 0.00 s
 Inaccurate integrated density:
   Number of electrons =    70
   Numerical integral  =    67.999911727744
   Relative error      =    -2.8572689604 %
 CPU 4.97 s  wall 4.97 s
 ---------------------------------------
  Cycle       Energy         DIIS Error
 ---------------------------------------
    1    -496.1477881174      4.82E-02
 CPU 0.00 s  wall 0.00 s
 CPU 5.38 s  wall 5.38 s
    2    -494.5430845741      1.07E-02
 CPU 0.00 s  wall 0.00 s
 CPU 5.40 s  wall 5.40 s
    3    -488.9403535632      3.25E-02
 CPU 0.00 s  wall 0.00 s
 CPU 5.40 s  wall 5.40 s
    4    -494.6975173147      8.06E-03
 CPU 0.00 s  wall 0.00 s
 CPU 5.35 s  wall 5.35 s
    5    -494.9608001169      1.85E-03
 CPU 0.00 s  wall 0.00 s
 CPU 5.34 s  wall 5.34 s
    6    -494.9683334044      1.49E-03
 CPU 0.00 s  wall 0.00 s
 CPU 5.30 s  wall 5.30 s
    7    -494.9750317289      6.32E-04
 CPU 0.00 s  wall 0.00 s
 CPU 5.27 s  wall 5.27 s
    8    -494.9761830135      2.40E-04
 CPU 0.00 s  wall 0.00 s
 CPU 5.22 s  wall 5.22 s
    9    -494.9763906226      5.34E-05
 CPU 0.00 s  wall 0.00 s
 CPU 5.14 s  wall 5.14 s
   10    -494.9763990816      3.18E-05
 CPU 0.00 s  wall 0.00 s
 CPU 5.08 s  wall 5.08 s
   11    -494.9764024314      9.35E-06
 CPU 0.00 s  wall 0.00 s
 CPU 5.02 s  wall 5.02 s
   12    -494.9764026805      4.81E-06
 CPU 0.00 s  wall 0.00 s
 CPU 4.96 s  wall 4.96 s
   13    -494.9764027635      9.50E-07
 CPU 0.00 s  wall 0.00 s
 CPU 4.87 s  wall 4.87 s
   14    -494.9764027671      3.40E-07
 CPU 0.00 s  wall 0.00 s
 CPU 4.73 s  wall 4.73 s
   15    -494.9764027685      9.14E-08
 CPU 0.00 s  wall 0.00 s
 CPU 4.62 s  wall 4.62 s
   16    -494.9764027673      3.76E-08
 CPU 0.00 s  wall 0.00 s
 CPU 4.43 s  wall 4.43 s
   17    -494.9764027668      6.95E-09 Convergence criterion met
 ---------------------------------------
 SCF time:  CPU 207.50 s  wall 207.21 s
 SCF   energy in the final basis set = -494.9764027668
 Total energy in the final basis set = -494.9764027668
 
 --------------------------------------------------------------
 
                    Orbital Energies (a.u.)
 --------------------------------------------------------------
 
 Alpha MOs
 -- Occupied --
-18.786 -18.785 -18.780 -18.775  -9.959  -9.951  -9.942  -9.913
 -9.907  -0.719  -0.678  -0.636  -0.606  -0.458  -0.397  -0.349
 -0.260  -0.171  -0.164  -0.142  -0.128  -0.117  -0.106  -0.092
 -0.086  -0.067  -0.061  -0.049   0.025   0.044   0.066   0.077
  0.087   0.103   0.107
 -- Virtual --
  0.232   0.236   0.265   0.272   0.283   0.283   0.297   0.302
  0.308   0.315   0.335   0.335   0.339   0.347   0.353   0.365
  0.372   0.383   0.406   0.410   0.413   0.441   0.463   0.473
  0.489   0.495   0.511   0.532   0.540   0.542   0.554   0.561
  0.570   0.573   0.580   0.589   0.595   0.603   0.610   0.621
  0.627   0.636   0.644   0.667   0.680   0.685   0.699   0.727
  0.746   0.798   0.852   0.905   0.936   0.958   0.978   0.993
  1.027   1.058   1.063   1.086   1.113   1.154   1.199   1.212
  1.229   1.241   1.260   1.271   1.298   1.326   1.361   1.399
  1.403   1.427   1.456   1.501   1.553   1.568   1.573   1.597
  1.625   1.652   1.667   1.667   1.679   1.685   1.694   1.700
  1.731   1.765   1.777   1.807   1.830   1.864   1.924   1.975
  2.030   2.039   2.083   2.094   2.105   2.143   2.175   2.176
  2.190   2.211   2.224   2.270   2.295   2.312   2.329   2.353
  2.392   2.415   2.463   2.476   2.484   2.500   2.543   2.571
  2.578   2.622   2.676   2.719   2.731   2.792   2.842   2.871
  2.932   2.977   3.043   3.069   3.230   3.352   3.372   3.469
  3.477   3.571   3.623   4.466   4.514   4.580   4.642   4.736
  4.833   4.914   4.969   5.263
 --------------------------------------------------------------
 
          Ground-State Mulliken Net Atomic Charges

     Atom                 Charge (a.u.)
  ----------------------------------------
      1 C                     0.464974
      2 O                    -0.611584
      3 O                    -0.627770
      4 C                    -0.089744
      5 C                    -0.811310
      6 O                    -0.534022
      7 C                     0.341044
      8 O                    -0.563840
      9 C                    -0.737735
     10 H                     0.160462
     11 H                     0.253467
     12 H                     0.169603
     13 H                     0.184148
     14 H                     0.217563
     15 H                     0.184745
  ----------------------------------------
  Sum of atomic charges =    -2.000000

 -----------------------------------------------------------------
                    Cartesian Multipole Moments
 -----------------------------------------------------------------
    Charge (ESU x 10^10)
                -9.6064
    Dipole Moment (Debye)
         X      -2.5162      Y       3.2086      Z      -0.2986
       Tot       4.0885
    Quadrupole Moments (Debye-Ang)
        XX    -105.7104     XY      -5.5080     YY     -82.2732
        XZ       1.3137     YZ       3.8242     ZZ     -68.8298
    Octopole Moments (Debye-Ang^2)
       XXX       0.0329    XXY       1.7123    XYY      -1.2919
       YYY      -8.4452    XXZ      -6.9009    XYZ       2.1638
       YYZ      -1.3607    XZZ      15.7459    YZZ       0.0723
       ZZZ      44.1673
    Hexadecapole Moments (Debye-Ang^3)
      XXXX   -1169.7997   XXXY      -3.2407   XXYY    -270.5005
      XYYY       3.6128   YYYY    -567.9953   XXXZ       8.7551
      XXYZ       4.0483   XYYZ       3.3250   YYYZ      -0.5452
      XXZZ    -219.5023   XYZZ       0.4817   YYZZ    -143.8757
      XZZZ     -32.0549   YZZZ      -8.7643   ZZZZ    -428.9143
 -----------------------------------------------------------------

 Begin NBO analysis for the ground state 


 *********************************** NBO 5.0 ***********************************
             N A T U R A L   A T O M I C   O R B I T A L   A N D
          N A T U R A L   B O N D   O R B I T A L   A N A L Y S I S
 *******************************************************************************
  (c) Copyright 1996-2002 Board of Regents of the University of Wisconsin System
      on behalf of the Theoretical Chemistry Institute.  All Rights Reserved.

          Cite this program as:

          NBO 5.0.  E. D. Glendening, J. K. Badenhoop, A. E. Reed,
          J. E. Carpenter, J. A. Bohmann, C. M. Morales, and F. Weinhold
          (Theoretical Chemistry Institute, University of Wisconsin,
          Madison, WI, 2001); http://www.chem.wisc.edu/~nbo5

       /PRINT  / : Print level set to  1
  This is a closed-shell NBO calculation

 Job title: Starting NBO analysis.                                          

 Storage needed:      168297 in NPA,      134749 in NBO (     7716670 available)


 NATURAL POPULATIONS:  Natural atomic orbital occupancies 
                                                          
  NAO Atom No lang   Type(AO)    Occupancy      Energy    
 ---------------------------------------------------------
   1    C  1  s      Cor( 1s)     1.99934      -9.83710
   2    C  1  s      Val( 2s)     0.79369       0.19973
   3    C  1  s      Ryd( 3s)     0.01209       1.17627
   4    C  1  s      Ryd( 4s)     0.00240       1.80990
   5    C  1  s      Ryd( 5s)     0.00025       3.22966
   6    C  1  px     Val( 2p)     0.87731       0.31552
   7    C  1  px     Ryd( 4p)     0.01248       1.13839
   8    C  1  px     Ryd( 3p)     0.00149       0.75365
   9    C  1  py     Val( 2p)     0.77664       0.33490
  10    C  1  py     Ryd( 4p)     0.01859       1.14790
  11    C  1  py     Ryd( 3p)     0.00088       0.61559
  12    C  1  pz     Val( 2p)     0.79185       0.22833
  13    C  1  pz     Ryd( 4p)     0.00276       0.98693
  14    C  1  pz     Ryd( 3p)     0.00052       0.48462
  15    C  1  dxy    Ryd( 3d)     0.00405       2.90462
  16    C  1  dxz    Ryd( 3d)     0.00138       2.35342
  17    C  1  dyz    Ryd( 3d)     0.00252       2.49184
  18    C  1  dx2y2  Ryd( 3d)     0.00387       2.87757
  19    C  1  dz2    Ryd( 3d)     0.00054       2.66826
 
  20    O  2  s      Cor( 1s)     1.99978     -18.53383
  21    O  2  s      Val( 2s)     1.71578      -0.55105
  22    O  2  s      Ryd( 3s)     0.00278       0.89401
  23    O  2  s      Ryd( 4s)     0.00030       2.37625
  24    O  2  s      Ryd( 5s)     0.00012       4.23516
  25    O  2  px     Val( 2p)     1.88568       0.07887
  26    O  2  px     Ryd( 3p)     0.00465       0.95405
  27    O  2  px     Ryd( 4p)     0.00021       1.47443
  28    O  2  py     Val( 2p)     1.58190       0.04181
  29    O  2  py     Ryd( 3p)     0.00115       0.98981
  30    O  2  py     Ryd( 4p)     0.00030       1.69351
  31    O  2  pz     Val( 2p)     1.59606       0.07815
  32    O  2  pz     Ryd( 3p)     0.00243       0.77350
  33    O  2  pz     Ryd( 4p)     0.00008       1.38872
  34    O  2  dxy    Ryd( 3d)     0.00276       2.48875
  35    O  2  dxz    Ryd( 3d)     0.00021       2.18393
  36    O  2  dyz    Ryd( 3d)     0.00305       2.41657
  37    O  2  dx2y2  Ryd( 3d)     0.00331       2.71586
  38    O  2  dz2    Ryd( 3d)     0.00115       2.38687
 
  39    O  3  s      Cor( 1s)     1.99982     -18.53722
  40    O  3  s      Val( 2s)     1.74041      -0.53878
  41    O  3  s      Ryd( 3s)     0.00166       1.11527
  42    O  3  s      Ryd( 4s)     0.00025       2.24117
  43    O  3  s      Ryd( 5s)     0.00005       4.18717
  44    O  3  px     Val( 2p)     1.61157       0.07662
  45    O  3  px     Ryd( 3p)     0.00157       0.95260
  46    O  3  px     Ryd( 4p)     0.00013       1.59311
  47    O  3  py     Val( 2p)     1.82706       0.09169
  48    O  3  py     Ryd( 3p)     0.00306       0.82354
  49    O  3  py     Ryd( 4p)     0.00012       1.55181
  50    O  3  pz     Val( 2p)     1.60519       0.09863
  51    O  3  pz     Ryd( 3p)     0.00216       0.75230
  52    O  3  pz     Ryd( 4p)     0.00002       1.42032
  53    O  3  dxy    Ryd( 3d)     0.00267       2.68875
  54    O  3  dxz    Ryd( 3d)     0.00210       2.33214
  55    O  3  dyz    Ryd( 3d)     0.00059       2.23974
  56    O  3  dx2y2  Ryd( 3d)     0.00268       2.59005
  57    O  3  dz2    Ryd( 3d)     0.00078       2.41117
 
  58    C  4  s      Cor( 1s)     1.99860      -9.80658
  59    C  4  s      Val( 2s)     0.91248       0.12865
  60    C  4  s      Ryd( 4s)     0.00778       1.77174
  61    C  4  s      Ryd( 5s)     0.00081       3.08682
  62    C  4  s      Ryd( 3s)     0.00020       1.08593
  63    C  4  px     Val( 2p)     1.08096       0.24641
  64    C  4  px     Ryd( 4p)     0.00537       1.28703
  65    C  4  px     Ryd( 3p)     0.00073       0.75237
  66    C  4  py     Val( 2p)     0.86383       0.27646
  67    C  4  py     Ryd( 4p)     0.01647       1.25108
  68    C  4  py     Ryd( 3p)     0.00086       0.66411
  69    C  4  pz     Val( 2p)     0.80922       0.20648
  70    C  4  pz     Ryd( 4p)     0.00284       1.04641
  71    C  4  pz     Ryd( 3p)     0.00133       0.57721
  72    C  4  dxy    Ryd( 3d)     0.00359       2.74922
  73    C  4  dxz    Ryd( 3d)     0.00077       2.24303
  74    C  4  dyz    Ryd( 3d)     0.00185       2.35625
  75    C  4  dx2y2  Ryd( 3d)     0.00142       2.81125
  76    C  4  dz2    Ryd( 3d)     0.00102       2.62161
 
  77    C  5  s      Cor( 1s)     1.99952      -9.81132
  78    C  5  s      Val( 2s)     1.26136      -0.05839
  79    C  5  s      Ryd( 3s)     0.01378       0.74309
  80    C  5  s      Ryd( 4s)     0.00053       1.51443
  81    C  5  s      Ryd( 5s)     0.00002       4.17198
  82    C  5  px     Val( 2p)     1.22309       0.19289
  83    C  5  px     Ryd( 3p)     0.00298       0.60322
  84    C  5  px     Ryd( 4p)     0.00043       0.83951
  85    C  5  py     Val( 2p)     1.21150       0.20133
  86    C  5  py     Ryd( 3p)     0.00403       0.57424
  87    C  5  py     Ryd( 4p)     0.00045       0.83213
  88    C  5  pz     Val( 2p)     1.07861       0.17005
  89    C  5  pz     Ryd( 3p)     0.01724       0.61563
  90    C  5  pz     Ryd( 4p)     0.00076       0.84766
  91    C  5  dxy    Ryd( 3d)     0.00115       2.38817
  92    C  5  dxz    Ryd( 3d)     0.00061       2.28269
  93    C  5  dyz    Ryd( 3d)     0.00074       2.18782
  94    C  5  dx2y2  Ryd( 3d)     0.00109       2.36581
  95    C  5  dz2    Ryd( 3d)     0.00072       2.36801
 
  96    O  6  s      Cor( 1s)     1.99982     -18.53993
  97    O  6  s      Val( 2s)     1.72860      -0.54308
  98    O  6  s      Ryd( 3s)     0.00154       1.47062
  99    O  6  s      Ryd( 4s)     0.00018       2.19527
 100    O  6  s      Ryd( 5s)     0.00006       4.07177
 101    O  6  px     Val( 2p)     1.90805       0.09503
 102    O  6  px     Ryd( 3p)     0.00326       1.01190
 103    O  6  px     Ryd( 4p)     0.00015       1.42187
 104    O  6  py     Val( 2p)     1.51621       0.07023
 105    O  6  py     Ryd( 3p)     0.00060       1.19230
 106    O  6  py     Ryd( 4p)     0.00019       1.38763
 107    O  6  pz     Val( 2p)     1.54487       0.09747
 108    O  6  pz     Ryd( 3p)     0.00250       0.94412
 109    O  6  pz     Ryd( 4p)     0.00013       1.31514
 110    O  6  dxy    Ryd( 3d)     0.00210       2.54079
 111    O  6  dxz    Ryd( 3d)     0.00010       2.19911
 112    O  6  dyz    Ryd( 3d)     0.00231       2.42336
 113    O  6  dx2y2  Ryd( 3d)     0.00237       2.76116
 114    O  6  dz2    Ryd( 3d)     0.00083       2.41622
 
 115    C  7  s      Cor( 1s)     1.99891      -9.81294
 116    C  7  s      Val( 2s)     0.86477       0.13549
 117    C  7  s      Ryd( 3s)     0.00558       1.52546
 118    C  7  s      Ryd( 4s)     0.00152       1.77330
 119    C  7  s      Ryd( 5s)     0.00010       4.17397
 120    C  7  px     Val( 2p)     0.94373       0.25779
 121    C  7  px     Ryd( 4p)     0.01344       1.01912
 122    C  7  px     Ryd( 3p)     0.00229       0.70593
 123    C  7  py     Val( 2p)     0.97520       0.24164
 124    C  7  py     Ryd( 4p)     0.01064       1.22390
 125    C  7  py     Ryd( 3p)     0.00102       0.70637
 126    C  7  pz     Val( 2p)     0.83260       0.20589
 127    C  7  pz     Ryd( 4p)     0.00492       1.01340
 128    C  7  pz     Ryd( 3p)     0.00168       0.57985
 129    C  7  dxy    Ryd( 3d)     0.00162       2.75697
 130    C  7  dxz    Ryd( 3d)     0.00195       2.35738
 131    C  7  dyz    Ryd( 3d)     0.00083       2.33310
 132    C  7  dx2y2  Ryd( 3d)     0.00323       2.75129
 133    C  7  dz2    Ryd( 3d)     0.00121       2.58020
 
 134    O  8  s      Cor( 1s)     1.99981     -18.52534
 135    O  8  s      Val( 2s)     1.72042      -0.54734
 136    O  8  s      Ryd( 3s)     0.00081       1.53832
 137    O  8  s      Ryd( 4s)     0.00026       2.40937
 138    O  8  s      Ryd( 5s)     0.00006       3.61973
 139    O  8  px     Val( 2p)     1.65408       0.07168
 140    O  8  px     Ryd( 3p)     0.00231       0.95067
 141    O  8  px     Ryd( 4p)     0.00024       1.50729
 142    O  8  py     Val( 2p)     1.77945       0.08193
 143    O  8  py     Ryd( 3p)     0.00287       0.91548
 144    O  8  py     Ryd( 4p)     0.00026       1.44252
 145    O  8  pz     Val( 2p)     1.63564       0.09171
 146    O  8  pz     Ryd( 3p)     0.00290       0.84605
 147    O  8  pz     Ryd( 4p)     0.00025       1.40724
 148    O  8  dxy    Ryd( 3d)     0.00231       2.69006
 149    O  8  dxz    Ryd( 3d)     0.00148       2.37497
 150    O  8  dyz    Ryd( 3d)     0.00108       2.28868
 151    O  8  dx2y2  Ryd( 3d)     0.00219       2.51264
 152    O  8  dz2    Ryd( 3d)     0.00087       2.40540
 
 153    C  9  s      Cor( 1s)     1.99927      -9.77225
 154    C  9  s      Val( 2s)     1.12131       0.00448
 155    C  9  s      Ryd( 3s)     0.00178       1.14382
 156    C  9  s      Ryd( 4s)     0.00052       1.86136
 157    C  9  s      Ryd( 5s)     0.00003       3.59091
 158    C  9  px     Val( 2p)     1.24782       0.18421
 159    C  9  px     Ryd( 4p)     0.00378       0.74619
 160    C  9  px     Ryd( 3p)     0.00056       0.67340
 161    C  9  py     Val( 2p)     1.12658       0.18696
 162    C  9  py     Ryd( 3p)     0.00169       0.62851
 163    C  9  py     Ryd( 4p)     0.00095       0.67931
 164    C  9  pz     Val( 2p)     1.23137       0.18469
 165    C  9  pz     Ryd( 4p)     0.00183       0.77311
 166    C  9  pz     Ryd( 3p)     0.00063       0.65391
 167    C  9  dxy    Ryd( 3d)     0.00091       2.34758
 168    C  9  dxz    Ryd( 3d)     0.00104       2.32847
 169    C  9  dyz    Ryd( 3d)     0.00047       2.19298
 170    C  9  dx2y2  Ryd( 3d)     0.00097       2.44857
 171    C  9  dz2    Ryd( 3d)     0.00132       2.40609
 
 172    H 10  s      Val( 1s)     0.78944       0.31854
 173    H 10  s      Ryd( 2s)     0.00282       1.03378
 
 174    H 11  s      Val( 1s)     0.72879       0.36236
 175    H 11  s      Ryd( 2s)     0.00149       1.15817
 
 176    H 12  s      Val( 1s)     0.77037       0.31383
 177    H 12  s      Ryd( 2s)     0.00104       1.04588
 
 178    H 13  s      Val( 1s)     0.78012       0.31038
 179    H 13  s      Ryd( 2s)     0.00192       1.07924
 
 180    H 14  s      Val( 1s)     0.75958       0.34924
 181    H 14  s      Ryd( 2s)     0.00200       1.07513
 
 182    H 15  s      Val( 1s)     0.79657       0.33518
 183    H 15  s      Ryd( 2s)     0.00173       1.07867
 
   1 low occupancy (<1.9990e) core orbital  found on  C  4
   1 low occupancy (<1.9990e) core orbital  found on  C  7
 
     Population inversion found on atom  C  1
     Population inversion found on atom  C  4
     Population inversion found on atom  C  7
     Population inversion found on atom  C  9


 Summary of Natural Population Analysis:

                                     Natural Population
             Natural    ---------------------------------------------
  Atom No    Charge        Core      Valence    Rydberg      Total
 --------------------------------------------------------------------
    C  1    0.69733      1.99934     3.23949    0.06383     5.30267
    O  2   -0.80170      1.99978     6.77943    0.02249     8.80170
    O  3   -0.80190      1.99982     6.78423    0.01786     8.80190
    C  4    0.28989      1.99860     3.66648    0.04502     5.71011
    C  5   -0.81861      1.99952     4.77456    0.04453     6.81861
    O  6   -0.71386      1.99982     6.69773    0.01631     8.71386
    C  7    0.33477      1.99891     3.61630    0.05002     5.66523
    O  8   -0.80728      1.99981     6.78958    0.01789     8.80728
    C  9   -0.74279      1.99927     4.72707    0.01646     6.74279
    H 10    0.20775      0.00000     0.78944    0.00282     0.79225
    H 11    0.26972      0.00000     0.72879    0.00149     0.73028
    H 12    0.22859      0.00000     0.77037    0.00104     0.77141
    H 13    0.21797      0.00000     0.78012    0.00192     0.78203
    H 14    0.23842      0.00000     0.75958    0.00200     0.76158
    H 15    0.20170      0.00000     0.79657    0.00173     0.79830
 ====================================================================
 * Total * -2.00000     17.99487    51.69973    0.30540    70.00000

                                 Natural Population      
 --------------------------------------------------------
   Core                      17.99487 ( 99.9715% of  18)
   Valence                   51.69973 ( 99.4226% of  52)
   Natural Minimal Basis     69.69460 ( 99.5637% of  70)
   Natural Rydberg Basis      0.30540 (  0.4363% of  70)
 --------------------------------------------------------

    Atom No         Natural Electron Configuration
 ----------------------------------------------------------------------------
      C  1      [core]2s( 0.79)2p( 2.45)3s( 0.01)3d( 0.01)4p( 0.03)
      O  2      [core]2s( 1.72)2p( 5.06)3p( 0.01)3d( 0.01)
      O  3      [core]2s( 1.74)2p( 5.04)3p( 0.01)3d( 0.01)
      C  4      [core]2s( 0.91)2p( 2.75)4s( 0.01)3d( 0.01)4p( 0.02)
      C  5      [core]2s( 1.26)2p( 3.51)3s( 0.01)3p( 0.02)
      O  6      [core]2s( 1.73)2p( 4.97)3p( 0.01)3d( 0.01)
      C  7      [core]2s( 0.86)2p( 2.75)3s( 0.01)3d( 0.01)4p( 0.03)
      O  8      [core]2s( 1.72)2p( 5.07)3p( 0.01)3d( 0.01)
      C  9      [core]2s( 1.12)2p( 3.61)4p( 0.01)
      H 10            1s( 0.79)
      H 11            1s( 0.73)
      H 12            1s( 0.77)
      H 13            1s( 0.78)
      H 14            1s( 0.76)
      H 15            1s( 0.80)


 NATURAL BOND ORBITAL ANALYSIS:

                       Occupancies       Lewis Structure    Low   High
           Occ.    -------------------  -----------------   occ   occ
  Cycle   Thresh.   Lewis   Non-Lewis     CR  BD  3C  LP    (L)   (NL)   Dev
 =============================================================================
   1(1)    1.90    68.03486   1.96514      9  16   0  10     3      4    0.45
   2(2)    1.90    67.76691   2.23309      9  17   0   9     4      4    0.45
   3(3)    1.90    67.78532   2.21468      9  17   0   9     4      4    0.42
   4(4)    1.90    67.78532   2.21468      9  17   0   9     4      4    0.42
   5(5)    1.90    66.96009   3.03991      9  18   0   8     3      5    1.45
   6(6)    1.90    67.78532   2.21468      9  17   0   9     4      4    0.42
   7(7)    1.90    67.78532   2.21468      9  17   0   9     4      4    0.42
   8(8)    1.90    66.96009   3.03991      9  18   0   8     3      5    1.45
   9(9)    1.90    67.78532   2.21468      9  17   0   9     4      4    0.42
  10(1)    1.80    68.03644   1.96356      9  16   0  10     2      4    0.45
  11(2)    1.80    68.03232   1.96768      9  16   0  10     2      4    0.45
  12(3)    1.80    68.03644   1.96356      9  16   0  10     2      4    0.45
  13(1)    1.70    68.03644   1.96356      9  16   0  10     2      4    0.45
  14(2)    1.70    68.03232   1.96768      9  16   0  10     2      4    0.45
  15(3)    1.70    68.03644   1.96356      9  16   0  10     2      4    0.45
  16(1)    1.60    68.20994   1.79006      9  16   0  10     0      4    0.45
  17(2)    1.60    68.20994   1.79006      9  16   0  10     0      4    0.45
  18(1)    1.50    67.27374   2.72626      9  14   0  12     0      4    0.50
  19(2)    1.50    67.27374   2.72626      9  14   0  12     0      4    0.50
  20(1)    1.60    68.20994   1.79006      9  16   0  10     0      4    0.45
 -----------------------------------------------------------------------------

 Strongly delocalized structure accepted

           1 low occupancy (<1.9990e) core orbital  found on  C 4
           1 low occupancy (<1.9990e) core orbital  found on  C 7

 --------------------------------------------------------
   Core                     17.99485 ( 99.971% of  18)
   Valence Lewis            50.21509 ( 96.567% of  52)
  ==================       ============================
   Total Lewis              68.20994 ( 97.443% of  70)
  -----------------------------------------------------
   Valence non-Lewis         1.58179 (  2.260% of  70)
   Rydberg non-Lewis         0.20827 (  0.298% of  70)
  ==================       ============================
   Total non-Lewis           1.79006 (  2.557% of  70)
 --------------------------------------------------------


     (Occupancy)   Bond orbital/ Coefficients/ Hybrids
 -------------------------------------------------------------------------------
   1. (1.99553) BD ( 1) C  1- O  2       
               ( 34.33%)   0.5859* C  1 s( 32.10%)p 2.11( 67.73%)d 0.01(  0.18%)
                                        -0.0002  0.5647 -0.0458 -0.0002  0.0050
                                         0.0121  0.0239 -0.0063  0.8077  0.0540
                                        -0.0026 -0.1453 -0.0090 -0.0007 -0.0026
                                         0.0002 -0.0114 -0.0379 -0.0133
               ( 65.67%)   0.8104* O  2 s( 39.86%)p 1.50( 59.87%)d 0.01(  0.27%)
                                         0.0000  0.6311 -0.0158 -0.0033 -0.0058
                                        -0.0357 -0.0074  0.0030 -0.7550  0.0212
                                         0.0020  0.1639 -0.0050 -0.0001  0.0041
                                        -0.0011 -0.0174 -0.0438 -0.0211
   2. (1.99490) BD ( 1) C  1- O  3       
               ( 35.35%)   0.5945* C  1 s( 32.59%)p 2.06( 67.26%)d 0.00(  0.15%)
                                        -0.0001  0.5692 -0.0428 -0.0054  0.0043
                                         0.7069  0.0552 -0.0076 -0.4121 -0.0047
                                        -0.0035 -0.0007  0.0038 -0.0010 -0.0327
                                         0.0015  0.0013  0.0157 -0.0144
               ( 64.65%)   0.8041* O  3 s( 35.68%)p 1.80( 64.09%)d 0.01(  0.23%)
                                         0.0000  0.5971 -0.0162 -0.0025 -0.0041
                                        -0.7174  0.0175  0.0006  0.3417 -0.0147
                                        -0.0027 -0.0945  0.0013  0.0004 -0.0348
                                         0.0062 -0.0022  0.0243 -0.0209
   3. (1.98119) BD ( 2) C  1- O  3       
               ( 24.39%)   0.4939* C  1 s(  0.17%)p99.99( 99.54%)d 1.64(  0.28%)
                                         0.0000  0.0416 -0.0010  0.0018 -0.0012
                                         0.0539 -0.0018  0.0041  0.1472 -0.0089
                                         0.0024  0.9837 -0.0498  0.0236  0.0052
                                         0.0423 -0.0304  0.0074  0.0072
               ( 75.61%)   0.8695* O  3 s(  0.07%)p99.99( 99.76%)d 2.47(  0.17%)
                                         0.0000  0.0264 -0.0004 -0.0008 -0.0001
                                        -0.0180  0.0007 -0.0004  0.1872 -0.0007
                                         0.0002  0.9809 -0.0037  0.0018 -0.0077
                                        -0.0358  0.0186 -0.0028 -0.0051
   4. (1.98177) BD ( 1) C  1- C  4       
               ( 47.16%)   0.6867* C  1 s( 35.43%)p 1.82( 64.49%)d 0.00(  0.08%)
                                        -0.0002 -0.5926 -0.0555  0.0015  0.0046
                                         0.6997 -0.0141 -0.0183  0.3869  0.0069
                                        -0.0077 -0.0713 -0.0020  0.0007 -0.0220
                                         0.0036 -0.0013 -0.0153  0.0061
               ( 52.84%)   0.7269* C  4 s( 33.36%)p 2.00( 66.57%)d 0.00(  0.07%)
                                         0.0004 -0.5773  0.0182  0.0016  0.0030
                                        -0.7114  0.0075  0.0014 -0.3930  0.0199
                                         0.0018  0.0684 -0.0053 -0.0002 -0.0213
                                         0.0047  0.0002 -0.0089  0.0113
   5. (1.98899) BD ( 1) C  4- O  6       
               ( 36.87%)   0.6072* C  4 s( 28.72%)p 2.48( 71.16%)d 0.00(  0.12%)
                                         0.0003 -0.5321 -0.0634  0.0044 -0.0050
                                        -0.0389 -0.0188  0.0000  0.8243  0.0648
                                         0.0011 -0.1603 -0.0203 -0.0002  0.0006
                                        -0.0004  0.0100  0.0295  0.0156
               ( 63.13%)   0.7946* O  6 s( 35.41%)p 1.82( 64.38%)d 0.01(  0.22%)
                                        -0.0001 -0.5947  0.0187 -0.0038  0.0015
                                         0.0194  0.0019  0.0011 -0.7955  0.0126
                                         0.0050  0.1022 -0.0013 -0.0007  0.0019
                                        -0.0009  0.0121  0.0403  0.0195
   6. (1.97251) BD ( 2) C  4- O  6       
               ( 26.69%)   0.5166* C  4 s(  0.72%)p99.99( 99.04%)d 0.32(  0.23%)
                                         0.0002 -0.0835  0.0114  0.0111  0.0017
                                         0.0853 -0.0063 -0.0035  0.1402 -0.0003
                                         0.0014  0.9800 -0.0479  0.0274 -0.0029
                                         0.0019 -0.0447  0.0075  0.0167
               ( 73.31%)   0.8562* O  6 s(  0.00%)p 1.00( 99.84%)d 0.00(  0.15%)
                                         0.0000  0.0025 -0.0001 -0.0021 -0.0002
                                         0.0806 -0.0021 -0.0003  0.1271  0.0015
                                         0.0003  0.9878 -0.0083  0.0023  0.0030
                                        -0.0011  0.0374 -0.0053 -0.0103
   7. (1.97587) BD ( 1) C  4- C  7       
               ( 49.80%)   0.7057* C  4 s( 37.24%)p 1.68( 62.68%)d 0.00(  0.08%)
                                        -0.0001  0.6101 -0.0125  0.0044 -0.0015
                                        -0.6956 -0.0069  0.0066  0.3726 -0.0094
                                        -0.0040  0.0603  0.0165  0.0027 -0.0209
                                         0.0001  0.0049  0.0116 -0.0139
               ( 50.20%)   0.7085* C  7 s( 33.99%)p 1.94( 65.93%)d 0.00(  0.08%)
                                         0.0001  0.5827 -0.0170  0.0023 -0.0044
                                         0.7329 -0.0036 -0.0110 -0.3323 -0.0013
                                         0.0059  0.1059  0.0187  0.0086 -0.0175
                                         0.0036  0.0007  0.0184 -0.0132
   8. (1.65640) BD ( 1) C  5- C  7       
               ( 62.30%)   0.7893* C  5 s( 19.54%)p 4.12( 80.45%)d 0.00(  0.01%)
                                         0.0014  0.4374 -0.0636  0.0027  0.0021
                                        -0.0644 -0.0224  0.0045  0.1063 -0.0125
                                        -0.0115  0.8845 -0.0763 -0.0069 -0.0008
                                         0.0013  0.0059  0.0001  0.0098
               ( 37.70%)   0.6140* C  7 s(  4.25%)p22.48( 95.63%)d 0.03(  0.12%)
                                         0.0003  0.2056 -0.0046 -0.0159  0.0022
                                        -0.0424 -0.0212 -0.0060 -0.0428  0.0062
                                         0.0012 -0.9753  0.0158  0.0251 -0.0040
                                        -0.0247  0.0102 -0.0030  0.0205
   9. (1.98518) BD ( 1) C  5- H 13       
               ( 60.86%)   0.7801* C  5 s( 24.48%)p 3.08( 75.43%)d 0.00(  0.09%)
                                        -0.0001  0.4941  0.0256  0.0017  0.0001
                                        -0.7303 -0.0171  0.0030 -0.3987 -0.0167
                                        -0.0024 -0.2476  0.0096 -0.0074  0.0197
                                         0.0129  0.0071  0.0130 -0.0124
               ( 39.14%)   0.6256* H 13 s(100.00%)
                                         1.0000  0.0044
  10. (1.98546) BD ( 1) C  5- H 14       
               ( 62.06%)   0.7878* C  5 s( 31.19%)p 2.20( 68.71%)d 0.00(  0.10%)
                                         0.0001  0.5583  0.0140 -0.0039 -0.0001
                                         0.6781  0.0239 -0.0052 -0.4431 -0.0200
                                        -0.0011 -0.1725 -0.0040 -0.0106 -0.0232
                                        -0.0120  0.0081  0.0102 -0.0114
               ( 37.94%)   0.6160* H 14 s(100.00%)
                                         1.0000  0.0038
  11. (1.98870) BD ( 1) C  5- H 15       
               ( 60.09%)   0.7752* C  5 s( 25.24%)p 2.96( 74.65%)d 0.00(  0.11%)
                                        -0.0001  0.5012  0.0338 -0.0003 -0.0013
                                         0.0203  0.0115  0.0024  0.7936  0.0413
                                         0.0038 -0.3381  0.0011 -0.0130  0.0014
                                        -0.0011 -0.0191 -0.0246 -0.0108
               ( 39.91%)   0.6317* H 15 s(100.00%)
                                         1.0000  0.0034
  12. (1.99224) BD ( 1) C  7- O  8       
               ( 36.79%)   0.6066* C  7 s( 28.48%)p 2.51( 71.39%)d 0.00(  0.13%)
                                        -0.0001  0.5319  0.0433  0.0029  0.0022
                                        -0.6675 -0.0460 -0.0115 -0.4883 -0.0263
                                        -0.0075  0.1633  0.0160  0.0044  0.0287
                                        -0.0090 -0.0068  0.0082 -0.0162
               ( 63.21%)   0.7950* O  8 s( 36.23%)p 1.75( 63.55%)d 0.01(  0.22%)
                                         0.0000  0.6017 -0.0117  0.0078 -0.0023
                                         0.6309 -0.0197 -0.0074  0.4537 -0.0199
                                        -0.0062 -0.1752  0.0053  0.0017  0.0378
                                        -0.0140 -0.0099  0.0122 -0.0188
  13. (1.98766) BD ( 1) C  7- C  9       
               ( 49.66%)   0.7047* C  7 s( 33.21%)p 2.01( 66.73%)d 0.00(  0.06%)
                                        -0.0003  0.5762 -0.0080 -0.0012  0.0029
                                        -0.1066 -0.0143  0.0012  0.8046 -0.0025
                                        -0.0038  0.0910  0.0080 -0.0033 -0.0039
                                         0.0021  0.0055 -0.0203 -0.0119
               ( 50.34%)   0.7095* C  9 s( 26.48%)p 2.77( 73.45%)d 0.00(  0.07%)
                                         0.0002  0.5145 -0.0098 -0.0053  0.0012
                                         0.1295 -0.0122 -0.0032 -0.8323 -0.0105
                                         0.0047 -0.1573  0.0021  0.0020 -0.0079
                                         0.0010  0.0073 -0.0218 -0.0099
  14. (1.98941) BD ( 1) C  9- H 10       
               ( 60.68%)   0.7789* C  9 s( 25.39%)p 2.94( 74.52%)d 0.00(  0.09%)
                                         0.0001 -0.5038 -0.0063 -0.0048  0.0008
                                         0.7482  0.0016  0.0026 -0.2595 -0.0047
                                        -0.0098  0.3434 -0.0012 -0.0057  0.0097
                                        -0.0227  0.0057 -0.0154  0.0044
               ( 39.32%)   0.6271* H 10 s(100.00%)
                                        -1.0000 -0.0041
  15. (1.98423) BD ( 1) C  9- H 11       
               ( 64.22%)   0.8014* C  9 s( 23.17%)p 3.31( 76.75%)d 0.00(  0.08%)
                                        -0.0001  0.4813  0.0063 -0.0041 -0.0001
                                         0.6497 -0.0052 -0.0024  0.4659  0.0017
                                         0.0029 -0.3580  0.0106  0.0009  0.0182
                                        -0.0164 -0.0106  0.0091 -0.0060
               ( 35.78%)   0.5982* H 11 s(100.00%)
                                         1.0000  0.0056
  16. (1.97370) BD ( 1) C  9- H 12       
               ( 61.18%)   0.7822* C  9 s( 24.94%)p 3.01( 74.97%)d 0.00(  0.09%)
                                        -0.0002  0.4993  0.0020  0.0051  0.0001
                                        -0.0044 -0.0006 -0.0076  0.1464  0.0045
                                         0.0111  0.8532  0.0015  0.0003  0.0002
                                         0.0055  0.0025 -0.0018  0.0298
               ( 38.82%)   0.6231* H 12 s(100.00%)
                                         1.0000  0.0013
  17. (1.99934) CR ( 1) C  1             s(100.00%)p 0.00(  0.00%)
                                         1.0000  0.0000  0.0000  0.0000  0.0000
                                         0.0002  0.0000  0.0000  0.0002  0.0000
                                         0.0000  0.0000  0.0000  0.0000  0.0000
                                         0.0000  0.0000  0.0000  0.0000
  18. (1.99978) CR ( 1) O  2             s(100.00%)p 0.00(  0.00%)
                                         1.0000  0.0003  0.0000  0.0000  0.0000
                                         0.0000  0.0000  0.0000  0.0002  0.0000
                                         0.0000  0.0000  0.0000  0.0000  0.0000
                                         0.0000  0.0000  0.0000  0.0000
  19. (1.99981) CR ( 1) O  3             s(100.00%)p 0.00(  0.00%)
                                         1.0000  0.0003  0.0000  0.0000  0.0000
                                         0.0002  0.0000  0.0000 -0.0001  0.0000
                                         0.0000  0.0000  0.0000  0.0000  0.0000
                                         0.0000  0.0000  0.0000  0.0000
  20. (1.99861) CR ( 1) C  4             s(100.00%)p 0.00(  0.00%)
                                         1.0000  0.0004  0.0000  0.0000  0.0000
                                         0.0002  0.0000  0.0000 -0.0001  0.0000
                                         0.0000 -0.0001  0.0000  0.0000  0.0000
                                         0.0000  0.0000  0.0000  0.0000
  21. (1.99950) CR ( 1) C  5             s(100.00%)p 0.00(  0.00%)
                                         1.0000 -0.0005  0.0001  0.0000  0.0000
                                         0.0000  0.0000  0.0000  0.0000  0.0000
                                         0.0000 -0.0013  0.0001  0.0000  0.0000
                                         0.0000  0.0000  0.0000  0.0000
  22. (1.99982) CR ( 1) O  6             s(100.00%)p 0.00(  0.00%)
                                         1.0000  0.0003  0.0000  0.0000  0.0000
                                         0.0000  0.0000  0.0000 -0.0003  0.0000
                                         0.0000  0.0000  0.0000  0.0000  0.0000
                                         0.0000  0.0000  0.0000  0.0000
  23. (1.99891) CR ( 1) C  7             s(100.00%)p 0.00(  0.00%)
                                         1.0000  0.0001  0.0000  0.0000  0.0000
                                        -0.0001  0.0000  0.0000  0.0002  0.0000
                                         0.0000  0.0003  0.0000  0.0000  0.0000
                                         0.0000  0.0000  0.0000  0.0000
  24. (1.99981) CR ( 1) O  8             s(100.00%)p 0.00(  0.00%)
                                         1.0000  0.0003  0.0000  0.0000  0.0000
                                        -0.0003  0.0000  0.0000 -0.0001  0.0000
                                         0.0000  0.0000  0.0000  0.0000  0.0000
                                         0.0000  0.0000  0.0000  0.0000
  25. (1.99927) CR ( 1) C  9             s(100.00%)p 0.00(  0.00%)
                                         1.0000  0.0001  0.0000  0.0000  0.0000
                                         0.0000  0.0000  0.0000  0.0003  0.0000
                                         0.0000  0.0002  0.0000  0.0000  0.0000
                                         0.0000  0.0000  0.0000  0.0000
  26. (1.97382) LP ( 1) O  2             s( 59.63%)p 0.68( 40.33%)d 0.00(  0.04%)
                                        -0.0004  0.7721  0.0098  0.0007  0.0032
                                         0.1193  0.0054 -0.0045  0.6123 -0.0051
                                        -0.0045 -0.1186  0.0021  0.0007 -0.0060
                                         0.0014  0.0063  0.0147  0.0092
  27. (1.88858) LP ( 2) O  2             s(  0.49%)p99.99( 99.36%)d 0.30(  0.15%)
                                         0.0000  0.0701 -0.0044  0.0038 -0.0015
                                        -0.9912 -0.0116 -0.0061  0.1041 -0.0043
                                         0.0041 -0.0056 -0.0011  0.0007  0.0367
                                        -0.0077  0.0006  0.0076 -0.0009
  28. (1.60138) LP ( 3) O  2             s(  0.02%)p99.99( 99.79%)d12.07(  0.19%)
                                         0.0000  0.0120 -0.0036  0.0013 -0.0004
                                        -0.0148  0.0011 -0.0016 -0.2016  0.0013
                                        -0.0011 -0.9783 -0.0039  0.0021  0.0018
                                         0.0054  0.0397 -0.0083 -0.0151
  29. (1.98184) LP ( 1) O  3             s( 63.99%)p 0.56( 35.99%)d 0.00(  0.02%)
                                        -0.0004  0.7999  0.0076  0.0005  0.0020
                                         0.5074 -0.0028  0.0033 -0.3164  0.0066
                                         0.0001  0.0483 -0.0003 -0.0001  0.0110
                                        -0.0016  0.0016 -0.0049  0.0086
  30. (1.90602) LP ( 2) O  3             s(  0.26%)p99.99( 99.61%)d 0.50(  0.13%)
                                         0.0000  0.0505  0.0079  0.0006 -0.0007
                                         0.4740  0.0039 -0.0018  0.8640  0.0096
                                        -0.0015 -0.1576 -0.0010  0.0003 -0.0194
                                         0.0041 -0.0043 -0.0299 -0.0003
  31. (1.98338) LP ( 1) O  6             s( 64.59%)p 0.55( 35.39%)d 0.00(  0.02%)
                                        -0.0004  0.8036  0.0083 -0.0016  0.0007
                                         0.0021  0.0006  0.0004 -0.5903  0.0037
                                        -0.0014  0.0737 -0.0009  0.0007  0.0001
                                         0.0004  0.0037  0.0104  0.0090
  32. (1.91299) LP ( 2) O  6             s(  0.01%)p 1.00( 99.88%)d 0.00(  0.11%)
                                         0.0000  0.0097  0.0014  0.0005 -0.0002
                                         0.9960  0.0072 -0.0002  0.0065 -0.0007
                                        -0.0002 -0.0821 -0.0016 -0.0006  0.0327
                                        -0.0062 -0.0025 -0.0014  0.0007
  33. (1.97887) LP ( 1) O  8             s( 63.60%)p 0.57( 36.38%)d 0.00(  0.02%)
                                        -0.0004  0.7974  0.0052 -0.0037  0.0012
                                        -0.4828  0.0046 -0.0003 -0.3516  0.0107
                                         0.0004  0.0834 -0.0027  0.0000 -0.0112
                                         0.0035  0.0026 -0.0026  0.0082
  34. (1.90746) LP ( 2) O  8             s(  0.01%)p 1.00( 99.88%)d 0.00(  0.11%)
                                        -0.0001  0.0049  0.0075  0.0038 -0.0008
                                        -0.5764 -0.0098 -0.0026  0.8147  0.0105
                                        -0.0002  0.0503  0.0017 -0.0006  0.0081
                                         0.0060 -0.0053 -0.0316 -0.0030
  35. (1.64703) LP ( 3) O  8             s(  0.16%)p99.99( 99.70%)d 0.89(  0.14%)
                                         0.0000  0.0398 -0.0002 -0.0030  0.0002
                                         0.1841  0.0055  0.0023  0.0696  0.0005
                                         0.0000  0.9789  0.0070  0.0042  0.0071
                                         0.0261  0.0230  0.0037 -0.0118
  36. (0.02058) RY*( 1) C  1             s(  8.77%)p 9.96( 87.32%)d 0.45(  3.91%)
                                         0.0000  0.0225  0.2922 -0.0369  0.0211
                                         0.0238  0.1035  0.1000  0.0679 -0.9035
                                        -0.0026 -0.0105  0.1759  0.0013  0.0667
                                        -0.0235  0.0564  0.1760 -0.0015
  37. (0.01635) RY*( 2) C  1             s( 31.54%)p 1.80( 56.91%)d 0.37( 11.56%)
                                         0.0000  0.0470  0.5354  0.1488  0.0656
                                         0.0740 -0.7129  0.1161  0.0143  0.1510
                                         0.1332 -0.0084 -0.0176 -0.0261  0.3075
                                        -0.0584  0.0232  0.1293  0.0185
  38. (0.00633) RY*( 3) C  1             s( 30.72%)p 1.12( 34.29%)d 1.14( 34.99%)
                                         0.0000 -0.0193 -0.1393  0.5341 -0.0460
                                         0.0075  0.4027  0.3216  0.0068  0.1000
                                         0.2459 -0.0050 -0.0703 -0.0419  0.4928
                                        -0.0786  0.0584  0.3003  0.0853
  39. (0.00603) RY*( 4) C  1             s(  1.61%)p 6.74( 10.88%)d54.22( 87.50%)
                                         0.0000 -0.0048  0.1106  0.0568  0.0258
                                         0.0031  0.0970 -0.1065  0.0115  0.0869
                                         0.0129  0.0613  0.1667 -0.2206 -0.0879
                                        -0.5134  0.7268 -0.1610 -0.2225
  40. (0.00274) RY*( 5) C  1             s(  6.24%)p 1.68( 10.46%)d13.35( 83.30%)
                                         0.0000 -0.0090  0.2424 -0.0514 -0.0309
                                        -0.0081  0.1389 -0.1055  0.0358  0.1922
                                         0.1869 -0.0069 -0.0193 -0.0230 -0.5104
                                         0.0749  0.0576  0.7505 -0.0168
  41. (0.00191) RY*( 6) C  1             s( 44.20%)p 0.75( 33.26%)d 0.51( 22.54%)
                                         0.0000 -0.0164  0.6498  0.0999 -0.0970
                                         0.0307  0.4525 -0.1726  0.0065  0.2022
                                        -0.0700  0.0072  0.2139 -0.0739  0.0224
                                        -0.0511 -0.3515 -0.2966  0.1041
  42. (0.00084) RY*( 7) C  1             s(  8.03%)p 8.93( 71.71%)d 2.52( 20.27%)
                                         0.0000 -0.0008  0.2488  0.1275 -0.0458
                                         0.0082  0.1228 -0.2063 -0.0042 -0.1138
                                         0.0238 -0.0443 -0.7971  0.0920 -0.0081
                                         0.2917  0.2919 -0.1774 -0.0285
  43. (0.00040) RY*( 8) C  1             s(  7.20%)p 9.08( 65.35%)d 3.81( 27.45%)
                                         0.0000  0.0087 -0.1686  0.2002  0.0586
                                        -0.0140 -0.1255 -0.4629 -0.0050 -0.1708
                                         0.0205  0.0053 -0.2526 -0.5743 -0.0098
                                        -0.3659 -0.3483  0.1022  0.0934
  44. (0.00031) RY*( 9) C  1             s( 54.34%)p 0.67( 36.55%)d 0.17(  9.11%)
                                         0.0000  0.0171 -0.0799  0.6753 -0.2840
                                        -0.0124 -0.1894 -0.2184 -0.0005 -0.0742
                                        -0.3908  0.0026  0.2173  0.2763 -0.2450
                                         0.0906  0.0878  0.0155  0.1221
  45. (0.00014) RY*(10) C  1             s(  3.85%)p22.59( 87.02%)d 2.37(  9.13%)
                                         0.0000  0.0035 -0.1001  0.0680  0.1545
                                        -0.0080 -0.0219 -0.5524 -0.0065 -0.0522
                                         0.6555  0.0038  0.2989  0.2069  0.1294
                                         0.2391  0.0761 -0.1075  0.0011
  46. (0.00006) RY*(11) C  1             s( 16.80%)p 1.94( 32.68%)d 3.01( 50.51%)
  47. (0.00005) RY*(12) C  1             s( 37.39%)p 1.06( 39.66%)d 0.61( 22.95%)
  48. (0.00003) RY*(13) C  1             s( 29.50%)p 0.98( 28.96%)d 1.41( 41.54%)
  49. (0.00001) RY*(14) C  1             s( 19.51%)p 0.30(  5.94%)d 3.82( 74.55%)
  50. (0.00515) RY*( 1) O  2             s( 22.06%)p 3.51( 77.37%)d 0.03(  0.57%)
                                         0.0000  0.0033  0.4658 -0.0563 -0.0209
                                        -0.0126  0.8759 -0.0040 -0.0178 -0.0013
                                        -0.0726  0.0032  0.0277 -0.0003  0.0341
                                        -0.0112  0.0101  0.0643 -0.0123
  51. (0.00254) RY*( 2) O  2             s(  0.03%)p99.99( 98.21%)d67.55(  1.76%)
                                         0.0000  0.0007  0.0051  0.0142  0.0057
                                         0.0018  0.0288  0.0040 -0.0003 -0.2486
                                        -0.0010 -0.0010 -0.9581 -0.0382  0.0137
                                         0.0722 -0.1055  0.0197  0.0267
  52. (0.00146) RY*( 3) O  2             s( 71.87%)p 0.39( 27.92%)d 0.00(  0.21%)
                                         0.0000 -0.0005  0.8343  0.0808 -0.1272
                                         0.0011 -0.4355  0.0847 -0.0059  0.2713
                                         0.0490 -0.0024 -0.0776  0.0168  0.0313
                                        -0.0060 -0.0035  0.0050  0.0328
  53. (0.00057) RY*( 4) O  2             s( 26.53%)p 2.29( 60.79%)d 0.48( 12.69%)
                                         0.0000  0.0046  0.1190  0.5011  0.0002
                                         0.0166  0.0019 -0.0188 -0.0060 -0.5808
                                         0.4943  0.0000  0.1575 -0.0258  0.3118
                                        -0.0771 -0.0305 -0.1484 -0.0275
  54. (0.00017) RY*( 5) O  2             s( 50.02%)p 0.74( 36.88%)d 0.26( 13.11%)
                                         0.0000 -0.0034 -0.1654  0.6835  0.0748
                                         0.0071  0.1124  0.2153  0.0076  0.4359
                                        -0.2930 -0.0015 -0.0836 -0.1639  0.2692
                                         0.0128  0.0089 -0.0775  0.2289
  55. (0.00012) RY*( 6) O  2             s( 12.83%)p 6.04( 77.43%)d 0.76(  9.75%)
                                         0.0000  0.0068  0.0943 -0.1041  0.3294
                                        -0.0023 -0.0850  0.6133 -0.0157 -0.3910
                                        -0.3860  0.0044  0.0654  0.2905  0.0343
                                        -0.1886  0.1592  0.0123  0.1877
  56. (0.00008) RY*( 7) O  2             s( 11.23%)p 4.25( 47.74%)d 3.65( 41.02%)
  57. (0.00006) RY*( 8) O  2             s(  4.59%)p18.13( 83.22%)d 2.66( 12.19%)
  58. (0.00004) RY*( 9) O  2             s( 15.58%)p 0.42(  6.51%)d 5.00( 77.92%)
  59. (0.00001) RY*(10) O  2             s( 74.16%)p 0.31( 22.96%)d 0.04(  2.88%)
  60. (0.00002) RY*(11) O  2             s(  1.99%)p 4.28(  8.51%)d44.97( 89.50%)
  61. (0.00001) RY*(12) O  2             s(  4.10%)p 9.36( 38.40%)d14.01( 57.49%)
  62. (0.00002) RY*(13) O  2             s(  4.97%)p 1.45(  7.22%)d17.66( 87.81%)
  63. (0.00000) RY*(14) O  2             s(  0.05%)p99.99(  7.50%)d99.99( 92.45%)
  64. (0.00381) RY*( 1) O  3             s( 14.84%)p 5.72( 84.83%)d 0.02(  0.33%)
                                         0.0000  0.0001  0.3760 -0.0682 -0.0480
                                        -0.0168  0.4728 -0.0106 -0.0035  0.7889
                                        -0.0315  0.0007 -0.0317  0.0034  0.0457
                                        -0.0074  0.0036  0.0153  0.0302
  65. (0.00230) RY*( 2) O  3             s(  1.02%)p95.76( 97.68%)d 1.27(  1.30%)
                                         0.0000  0.0009  0.0917  0.0382 -0.0181
                                        -0.0026 -0.0346 -0.0138 -0.0008 -0.0607
                                        -0.0067 -0.0071 -0.9852  0.0326  0.0042
                                        -0.0395  0.1013 -0.0126 -0.0318
  66. (0.00078) RY*( 3) O  3             s( 49.19%)p 0.98( 48.40%)d 0.05(  2.40%)
                                         0.0000  0.0070  0.5828  0.3851 -0.0628
                                        -0.0170 -0.6343 -0.1929  0.0080  0.1366
                                         0.1304 -0.0004  0.0817 -0.0428 -0.0560
                                         0.0054  0.0056  0.1390  0.0391
  67. (0.00058) RY*( 4) O  3             s( 55.65%)p 0.59( 32.79%)d 0.21( 11.56%)
                                         0.0000  0.0001  0.6643 -0.3393 -0.0128
                                        -0.0109  0.1803  0.0820 -0.0085 -0.4540
                                        -0.2754  0.0024  0.0676  0.0440 -0.0992
                                         0.0466 -0.0353 -0.3046  0.0979
  68. (0.00014) RY*( 5) O  3             s( 17.78%)p 4.06( 72.26%)d 0.56(  9.96%)
                                         0.0000  0.0032 -0.0063  0.4211 -0.0204
                                        -0.0113 -0.0820  0.6611  0.0115  0.0570
                                        -0.5128  0.0008  0.0109  0.1107  0.3080
                                        -0.0139 -0.0357 -0.0410  0.0395
  69. (0.00007) RY*( 6) O  3             s( 17.96%)p 1.40( 25.21%)d 3.16( 56.83%)
  70. (0.00003) RY*( 7) O  3             s( 33.26%)p 1.17( 39.04%)d 0.83( 27.70%)
  71. (0.00001) RY*( 8) O  3             s( 73.64%)p 0.31( 22.61%)d 0.05(  3.76%)
  72. (0.00001) RY*( 9) O  3             s(  0.20%)p99.99( 97.85%)d 9.82(  1.95%)
  73. (0.00001) RY*(10) O  3             s(  2.79%)p 7.97( 22.25%)d26.85( 74.96%)
  74. (0.00001) RY*(11) O  3             s(  0.23%)p 4.05(  0.92%)d99.99( 98.86%)
  75. (0.00001) RY*(12) O  3             s(  1.37%)p 3.16(  4.35%)d68.58( 94.28%)
  76. (0.00001) RY*(13) O  3             s( 25.70%)p 1.21( 31.05%)d 1.68( 43.25%)
  77. (0.00001) RY*(14) O  3             s(  6.37%)p 3.35( 21.31%)d11.36( 72.32%)
  78. (0.01540) RY*( 1) C  4             s( 13.33%)p 6.43( 85.73%)d 0.07(  0.94%)
                                         0.0000 -0.0540  0.3595  0.0328  0.0085
                                        -0.0094  0.1926 -0.0623  0.0653 -0.8859
                                        -0.0733 -0.0168  0.1238  0.0787  0.0466
                                         0.0208 -0.0664  0.0210  0.0443
  79. (0.00684) RY*( 2) C  4             s(  5.36%)p10.06( 53.92%)d 7.60( 40.72%)
                                         0.0000  0.0272  0.1941 -0.1147 -0.0452
                                        -0.0111  0.4243 -0.1130  0.0039  0.2239
                                         0.0050 -0.0539 -0.3674  0.3978  0.1431
                                         0.1706 -0.5222  0.0532  0.2864
  80. (0.00536) RY*( 3) C  4             s(  5.19%)p11.56( 60.01%)d 6.71( 34.81%)
                                         0.0000  0.0041  0.2007  0.0985 -0.0435
                                         0.0116 -0.6777  0.1020 -0.0105 -0.0351
                                        -0.2410 -0.0345 -0.1130  0.2383 -0.4515
                                         0.1835 -0.2228  0.1823  0.1663
  81. (0.00313) RY*( 4) C  4             s( 30.94%)p 1.08( 33.28%)d 1.16( 35.78%)
                                         0.0000 -0.0054  0.5464 -0.0291 -0.0997
                                         0.0248  0.3958  0.1247  0.0379  0.2831
                                        -0.0942  0.0125  0.2417 -0.1048 -0.5581
                                         0.0143  0.1682 -0.0854 -0.1027
  82. (0.00236) RY*( 5) C  4             s( 34.32%)p 0.68( 23.17%)d 1.24( 42.51%)
                                         0.0000 -0.0019  0.5747  0.0749 -0.0852
                                        -0.0125 -0.2741 -0.1370  0.0171  0.2527
                                        -0.1808  0.0042  0.1977  0.0416  0.6035
                                        -0.1981  0.0901  0.1012 -0.0575
  83. (0.00095) RY*( 6) C  4             s( 22.29%)p 2.14( 47.74%)d 1.34( 29.97%)
                                         0.0000 -0.0004 -0.2407  0.3840 -0.1322
                                         0.0048  0.2662  0.4613 -0.0295  0.0295
                                        -0.3600  0.0115  0.2165  0.1242  0.1378
                                         0.1156  0.0585  0.5114  0.0488
  84. (0.00077) RY*( 7) C  4             s( 14.29%)p 5.34( 76.25%)d 0.66(  9.45%)
                                         0.0000  0.0132  0.2737  0.2604  0.0072
                                        -0.0053  0.0108  0.2842  0.0020 -0.0577
                                         0.2228 -0.0195 -0.7181 -0.3356  0.0593
                                         0.0023  0.2429  0.1774 -0.0240
  85. (0.00047) RY*( 8) C  4             s( 21.50%)p 1.46( 31.44%)d 2.19( 47.07%)
                                         0.0000 -0.0040  0.0818  0.4563 -0.0073
                                         0.0005 -0.0809  0.3001  0.0197  0.0378
                                         0.3828 -0.0033  0.2176  0.1486  0.1499
                                         0.4102 -0.0781 -0.5220  0.0358
  86. (0.00039) RY*( 9) C  4             s( 35.39%)p 0.29( 10.17%)d 1.54( 54.43%)
                                         0.0000  0.0071 -0.0394  0.5911  0.0541
                                         0.0034  0.0587 -0.2303 -0.0072  0.0308
                                         0.1876 -0.0158  0.0534  0.0772 -0.2056
                                        -0.6539 -0.1611  0.0182  0.2196
  87. (0.00037) RY*(10) C  4             s(  0.91%)p55.22( 50.28%)d53.62( 48.81%)
                                         0.0000 -0.0064 -0.0142  0.0647  0.0684
                                        -0.0053  0.0022  0.2342  0.0135 -0.0048
                                        -0.4318 -0.0103 -0.0477 -0.5088  0.0683
                                        -0.1459 -0.5823 -0.3123 -0.1601
  88. (0.00017) RY*(11) C  4             s( 19.23%)p 2.80( 53.95%)d 1.39( 26.82%)
                                         0.0000  0.0029 -0.0549  0.3920 -0.1888
                                         0.0011  0.0579 -0.6598 -0.0070  0.0344
                                        -0.1337  0.0023 -0.0312 -0.2840 -0.0471
                                         0.4717 -0.0260  0.1076 -0.1767
  89. (0.00010) RY*(12) C  4             s( 42.33%)p 0.79( 33.57%)d 0.57( 24.10%)
                                         0.0000  0.0077 -0.0156  0.1675  0.6284
                                         0.0011  0.0811 -0.1058  0.0056  0.0378
                                        -0.4874 -0.0008 -0.1882  0.2086  0.0112
                                         0.0630  0.3581 -0.3038  0.1279
  90. (0.00006) RY*(13) C  4             s( 37.24%)p 0.81( 30.14%)d 0.88( 32.62%)
  91. (0.00003) RY*(14) C  4             s( 17.64%)p 0.62( 10.89%)d 4.05( 71.47%)
  92. (0.01247) RY*( 1) C  5             s( 38.54%)p 1.56( 60.17%)d 0.03(  1.29%)
                                         0.0000  0.0158  0.6198 -0.0231  0.0229
                                        -0.0004  0.1747 -0.0530  0.0000  0.0600
                                         0.0373  0.1039  0.7324 -0.1270 -0.0125
                                        -0.0113 -0.0300  0.0027  0.1080
  93. (0.00149) RY*( 2) C  5             s( 59.75%)p 0.65( 38.96%)d 0.02(  1.29%)
                                         0.0000 -0.0214  0.5852  0.5044  0.0118
                                         0.0104 -0.2269 -0.0855 -0.0135  0.1754
                                         0.2089  0.0107 -0.4770 -0.1687  0.0438
                                         0.0516  0.0825  0.0174 -0.0345
  94. (0.00109) RY*( 3) C  5             s(  2.96%)p32.37( 95.70%)d 0.45(  1.34%)
                                         0.0000  0.0010  0.0961  0.1294 -0.0599
                                         0.0121 -0.3953 -0.3228  0.0433 -0.8049
                                        -0.1683 -0.0124  0.0822  0.1067  0.0190
                                        -0.0490 -0.0286  0.0902  0.0413
  95. (0.00086) RY*( 4) C  5             s(  3.45%)p23.60( 81.50%)d 4.36( 15.05%)
                                         0.0000 -0.0110  0.0755  0.1694 -0.0031
                                        -0.0171  0.7824 -0.0557  0.0089 -0.3535
                                        -0.1281  0.0009 -0.2291 -0.0738  0.0186
                                         0.3716 -0.0943 -0.0436  0.0352
  96. (0.00034) RY*( 5) C  5             s(  4.75%)p15.18( 72.04%)d 4.89( 23.22%)
                                         0.0000 -0.0071  0.1955  0.0949  0.0135
                                        -0.0048  0.0512  0.6180  0.0088 -0.0945
                                        -0.5602 -0.0062 -0.1061  0.0404 -0.0752
                                        -0.3833  0.2291  0.0687  0.1496
  97. (0.00015) RY*( 6) C  5             s( 35.96%)p 0.83( 29.83%)d 0.95( 34.21%)
                                         0.0000 -0.0036 -0.3217  0.5044  0.0405
                                        -0.0183  0.1441 -0.0018  0.0041 -0.0924
                                         0.1562 -0.0021  0.2039 -0.4502 -0.2232
                                        -0.4469 -0.0763  0.0007 -0.2946
  98. (0.00013) RY*( 7) C  5             s(  2.60%)p20.93( 54.33%)d16.60( 43.08%)
                                         0.0000  0.0084 -0.0466  0.1479 -0.0429
                                        -0.0145  0.2403 -0.5312  0.0075  0.1951
                                        -0.1422  0.0018  0.0288  0.3794 -0.0379
                                        -0.2550  0.6026  0.0284 -0.0172
  99. (0.00008) RY*( 8) C  5             s( 14.20%)p 3.02( 42.88%)d 3.02( 42.93%)
 100. (0.00006) RY*( 9) C  5             s( 19.46%)p 1.71( 33.27%)d 2.43( 47.27%)
 101. (0.00004) RY*(10) C  5             s( 10.12%)p 5.83( 59.06%)d 3.04( 30.81%)
 102. (0.00001) RY*(11) C  5             s( 12.26%)p 1.15( 14.11%)d 6.01( 73.63%)
 103. (0.00001) RY*(12) C  5             s(  3.51%)p 0.57(  2.01%)d26.88( 94.48%)
 104. (0.00001) RY*(13) C  5             s(  0.26%)p53.25( 13.69%)d99.99( 86.05%)
 105. (0.00000) RY*(14) C  5             s( 91.75%)p 0.03(  3.21%)d 0.06(  5.05%)
 106. (0.00349) RY*( 1) O  6             s(  2.77%)p34.82( 96.50%)d 0.26(  0.72%)
                                         0.0000  0.0002  0.1625  0.0360 -0.0051
                                        -0.0053  0.7926 -0.0674  0.0021 -0.1471
                                        -0.0162 -0.0046 -0.5571 -0.0005 -0.0598
                                        -0.0036  0.0483 -0.0132 -0.0336
 107. (0.00264) RY*( 2) O  6             s(  4.85%)p19.53( 94.69%)d 0.10(  0.46%)
                                         0.0000  0.0001  0.2193  0.0119 -0.0159
                                         0.0008 -0.5989  0.0363  0.0013 -0.1487
                                         0.0216 -0.0099 -0.7502 -0.0375  0.0318
                                        -0.0171  0.0539 -0.0143 -0.0143
 108. (0.00093) RY*( 3) O  6             s( 83.72%)p 0.16( 13.43%)d 0.03(  2.84%)
                                         0.0000  0.0045  0.9084  0.1082 -0.0186
                                        -0.0019  0.0002 -0.1338  0.0189  0.0734
                                         0.2035 -0.0001  0.2571 -0.0560  0.0225
                                         0.0062  0.0307 -0.0848  0.1406
 109. (0.00034) RY*( 4) O  6             s( 11.97%)p 6.91( 82.74%)d 0.44(  5.29%)
                                         0.0000 -0.0015  0.0846  0.2753 -0.1918
                                         0.0014 -0.0377  0.0631 -0.0009 -0.7835
                                        -0.3855  0.0018  0.2037  0.1344 -0.0293
                                        -0.0023  0.0803  0.2099  0.0385
 110. (0.00024) RY*( 5) O  6             s( 50.14%)p 0.86( 43.33%)d 0.13(  6.53%)
                                         0.0000 -0.0048 -0.2366  0.6237  0.2374
                                        -0.0019 -0.0345 -0.4332 -0.0181 -0.1976
                                         0.3751  0.0062  0.0065 -0.2537  0.0593
                                        -0.0271 -0.0852 -0.2316 -0.0115
 111. (0.00011) RY*( 6) O  6             s( 13.22%)p 6.43( 85.02%)d 0.13(  1.76%)
                                         0.0000 -0.0005  0.0025 -0.0849  0.3535
                                        -0.0013 -0.0358 -0.2920 -0.0003 -0.0591
                                         0.1281 -0.0044 -0.0163  0.8623  0.0741
                                         0.0962  0.0513 -0.0156  0.0000
 112. (0.00009) RY*( 7) O  6             s(  4.92%)p16.90( 83.07%)d 2.44( 12.01%)
 113. (0.00004) RY*( 8) O  6             s( 41.18%)p 0.64( 26.39%)d 0.79( 32.43%)
 114. (0.00003) RY*( 9) O  6             s( 23.21%)p 0.46( 10.69%)d 2.85( 66.10%)
 115. (0.00001) RY*(10) O  6             s( 45.76%)p 0.37( 17.14%)d 0.81( 37.10%)
 116. (0.00002) RY*(11) O  6             s(  0.42%)p 1.72(  0.72%)d99.99( 98.86%)
 117. (0.00000) RY*(12) O  6             s(  1.85%)p 1.41(  2.62%)d51.53( 95.53%)
 118. (0.00001) RY*(13) O  6             s(  8.32%)p 5.17( 43.03%)d 5.85( 48.65%)
 119. (0.00001) RY*(14) O  6             s(  7.67%)p 0.15(  1.11%)d11.90( 91.22%)
 120. (0.01628) RY*( 1) C  7             s( 15.13%)p 5.49( 83.01%)d 0.12(  1.86%)
                                         0.0000 -0.0430  0.3857 -0.0129 -0.0228
                                         0.0471 -0.7141 -0.0833  0.0234 -0.5355
                                        -0.0760  0.0055  0.1075  0.0795 -0.0379
                                        -0.0532 -0.0164 -0.1014  0.0613
 121. (0.01070) RY*( 2) C  7             s(  2.71%)p30.65( 83.21%)d 5.18( 14.07%)
                                         0.0000 -0.0010 -0.0080  0.1645  0.0026
                                        -0.0135  0.4855 -0.3441  0.0135 -0.6546
                                         0.1263 -0.0139  0.1816  0.0079 -0.1025
                                         0.0479  0.0920  0.3434 -0.0390
 122. (0.00689) RY*( 3) C  7             s(  0.29%)p99.99( 54.43%)d99.99( 45.28%)
                                         0.0000  0.0142  0.0005  0.0155  0.0497
                                        -0.0031  0.0470 -0.0629  0.0057 -0.0385
                                         0.1180  0.0233 -0.5586  0.4583 -0.1493
                                        -0.5221 -0.1705  0.1426  0.3294
 123. (0.00370) RY*( 4) C  7             s( 18.39%)p 2.39( 43.93%)d 2.05( 37.68%)
                                         0.0000 -0.0151 -0.0867  0.4193 -0.0183
                                        -0.0111 -0.4080 -0.2725  0.0164  0.3521
                                         0.2660 -0.0024  0.0186 -0.0552 -0.1381
                                         0.0868  0.0810  0.5793 -0.0900
 124. (0.00194) RY*( 5) C  7             s( 15.03%)p 4.28( 64.39%)d 1.37( 20.58%)
                                         0.0000  0.0189  0.3829  0.0566  0.0131
                                         0.0168  0.0713  0.0589  0.0021 -0.1093
                                         0.0362 -0.0388 -0.6903 -0.3793  0.0841
                                         0.3054 -0.1603  0.0860 -0.2688
 125. (0.00149) RY*( 6) C  7             s( 63.16%)p 0.52( 32.68%)d 0.07(  4.16%)
                                         0.0000 -0.0007  0.7830 -0.1357  0.0054
                                         0.0184  0.2356 -0.2878  0.0158  0.3647
                                         0.0199  0.0070  0.2322  0.0231  0.0033
                                        -0.1387  0.0815  0.0388  0.1193
 126. (0.00098) RY*( 7) C  7             s( 46.50%)p 0.87( 40.40%)d 0.28( 13.10%)
                                         0.0000  0.0026  0.1866  0.6556 -0.0173
                                         0.0164  0.1113  0.4005  0.0103 -0.0102
                                        -0.4314 -0.0115  0.1193  0.1740  0.2971
                                        -0.0596 -0.1223  0.1431  0.0614
 127. (0.00055) RY*( 8) C  7             s(  5.18%)p 1.41(  7.30%)d16.91( 87.53%)
                                         0.0000  0.0102  0.1091  0.1967  0.0326
                                        -0.0260  0.0765  0.1739 -0.0169  0.0455
                                        -0.1321 -0.0007 -0.0207  0.1264 -0.8513
                                         0.3188  0.0703 -0.1904  0.0876
 128. (0.00036) RY*( 9) C  7             s(  2.62%)p16.65( 43.61%)d20.52( 53.77%)
                                         0.0000  0.0109  0.1101 -0.0138  0.1173
                                         0.0021 -0.0033  0.5131 -0.0043 -0.0954
                                         0.3733  0.0084 -0.0464 -0.1490  0.0666
                                        -0.0686  0.6618  0.1200  0.2759
 129. (0.00026) RY*(10) C  7             s(  2.88%)p17.10( 49.27%)d16.60( 47.85%)
                                         0.0000  0.0010  0.0745 -0.0295  0.1497
                                         0.0014  0.0116  0.0649  0.0053  0.0079
                                         0.4397 -0.0001  0.0572  0.5400  0.2601
                                         0.5843 -0.2214 -0.0555  0.1316
 130. (0.00015) RY*(11) C  7             s( 23.70%)p 1.09( 25.74%)d 2.13( 50.56%)
                                         0.0000 -0.0053  0.0577  0.4374 -0.2057
                                         0.0031  0.0560 -0.0341 -0.0081 -0.0038
                                         0.5015 -0.0070  0.0338  0.0151 -0.0037
                                        -0.2878  0.0067 -0.5348 -0.3698
 131. (0.00007) RY*(12) C  7             s( 26.42%)p 1.23( 32.59%)d 1.55( 40.98%)
 132. (0.00002) RY*(13) C  7             s( 71.78%)p 0.14( 10.21%)d 0.25( 18.01%)
 133. (0.00002) RY*(14) C  7             s(  6.28%)p 4.70( 29.54%)d10.22( 64.18%)
 134. (0.00337) RY*( 1) O  8             s(  1.61%)p60.27( 97.05%)d 0.83(  1.34%)
                                         0.0000 -0.0027  0.1224  0.0309  0.0126
                                         0.0096 -0.6386  0.0499 -0.0049  0.5823
                                        -0.1006  0.0026 -0.4563  0.0524 -0.0130
                                         0.0343  0.0347  0.0986 -0.0336
 135. (0.00292) RY*( 2) O  8             s(  0.09%)p99.99( 99.00%)d 9.66(  0.90%)
                                         0.0000 -0.0001  0.0147 -0.0111  0.0244
                                         0.0072 -0.1293  0.0296 -0.0022  0.5102
                                        -0.0361 -0.0040  0.8420 -0.0416 -0.0268
                                        -0.0526 -0.0232  0.0410  0.0578
[...]
 O          0.014  0.202  0.002   -0.001 -0.002  0.314    0.051  0.159  0.017
 C         -0.102 -0.021  0.121   -0.099 -0.132 -0.081   -0.043 -0.051 -0.051
 H         -0.169 -0.179  0.077   -0.153 -0.261 -0.161   -0.149 -0.311 -0.360
 H         -0.210  0.081  0.391   -0.192 -0.045  0.183   -0.233  0.132  0.189
 H         -0.151 -0.206 -0.006   -0.191 -0.302 -0.199   -0.198 -0.061 -0.046
 H         -0.166 -0.178 -0.079    0.160  0.269 -0.162   -0.151 -0.274  0.356
 H         -0.146 -0.202  0.004    0.195  0.304 -0.199   -0.203  0.009 -0.012
 H         -0.206  0.080 -0.389    0.200  0.041  0.194   -0.235  0.161 -0.189
 TransDip  -0.027 -0.023 -0.001    0.000  0.001 -0.129   -0.024 -0.063  0.009

 Mode:                13                     14                     15
 Frequency:       536.95                 601.87                 766.01
 Force Cnst:      1.0848                 1.0258                 4.5205
 Red. Mass:       6.3864                 4.8064                13.0757
 IR Active:          YES                    YES                    YES
 IR Intens:        6.055                 14.534                 76.906
 Raman Active:       YES                    YES                    YES
               X      Y      Z        X      Y      Z        X      Y      Z
 C          0.009 -0.017  0.397    0.039 -0.033  0.003   -0.440 -0.341 -0.008
 O         -0.018 -0.021 -0.128   -0.094 -0.062 -0.001    0.380 -0.352 -0.001
 O          0.015 -0.005 -0.138    0.044 -0.050 -0.001   -0.051  0.466  0.004
 C          0.001  0.023  0.347    0.045  0.196  0.003   -0.270  0.043  0.010
 C         -0.020  0.161 -0.163    0.030 -0.155  0.236    0.009 -0.023  0.034
 O          0.011  0.026 -0.089   -0.080  0.208 -0.002    0.110  0.105 -0.002
 C         -0.037  0.007 -0.118    0.148 -0.054  0.001    0.034  0.044  0.005
 O         -0.007 -0.024  0.159   -0.076  0.110  0.000    0.066  0.037  0.000
 C          0.032 -0.148 -0.147    0.032 -0.157 -0.237    0.008 -0.032 -0.042
 H          0.042 -0.122  0.037   -0.012 -0.266 -0.426   -0.025 -0.119 -0.110
 H          0.064 -0.182 -0.041   -0.048 -0.081 -0.202   -0.025  0.001  0.022
 H          0.073 -0.339 -0.284   -0.048 -0.081 -0.178   -0.025 -0.088 -0.082
 H          0.002  0.219 -0.084   -0.015 -0.265  0.428   -0.028 -0.122  0.114
 H         -0.012  0.344 -0.293   -0.050 -0.077  0.175   -0.032 -0.087  0.080
 H          0.008  0.137  0.012   -0.051 -0.078  0.202   -0.033  0.017 -0.046
 TransDip   0.003  0.007  0.078    0.090  0.083  0.002   -0.279 -0.034  0.002

 Mode:                16                     17                     18
 Frequency:       788.04                 810.73                 857.89
 Force Cnst:      1.9372                 1.1957                 0.8891
 Red. Mass:       5.2945                 3.0875                 2.0505
 IR Active:          YES                    YES                    YES
 IR Intens:        4.698                  1.842                 30.700
 Raman Active:       YES                    YES                    YES
               X      Y      Z        X      Y      Z        X      Y      Z
 C         -0.004 -0.005  0.380   -0.012  0.012  0.002    0.000 -0.001  0.130
 O          0.004 -0.004 -0.090    0.007  0.033  0.000    0.000  0.000 -0.029
 O         -0.002  0.006 -0.091   -0.033 -0.002  0.000    0.000  0.000 -0.029
 C         -0.001  0.000 -0.322    0.043 -0.071 -0.004    0.000  0.000 -0.147
 C         -0.016 -0.140  0.127   -0.043 -0.053  0.161    0.008  0.112 -0.022
 O          0.001  0.002  0.054    0.030 -0.088  0.001    0.000  0.001  0.030
 C          0.001 -0.002 -0.208   -0.151  0.248  0.001    0.001 -0.002  0.165
 O          0.000  0.000 -0.003    0.116  0.047  0.000   -0.001 -0.001 -0.003
 C          0.016  0.140  0.127   -0.042 -0.056 -0.161   -0.007 -0.111 -0.019
 H         -0.071 -0.063 -0.033    0.025  0.115  0.274    0.042 -0.005 -0.280
 H         -0.135  0.281  0.436    0.103 -0.201 -0.162    0.015 -0.122 -0.401
 H         -0.107 -0.032  0.011    0.136 -0.306 -0.353   -0.055  0.331  0.296
 H          0.069  0.059 -0.030    0.025  0.113 -0.283   -0.041  0.001 -0.274
 H          0.105  0.035  0.009    0.138 -0.312  0.364    0.052 -0.323  0.291
 H          0.132 -0.277  0.438    0.104 -0.199  0.156   -0.016  0.124 -0.407
 TransDip  -0.005 -0.001 -0.069    0.042  0.012  0.001    0.000  0.000  0.177

 Mode:                19                     20                     21
 Frequency:       937.76                 989.56                1029.85
 Force Cnst:      3.5538                 0.7806                 1.1803
 Red. Mass:       6.8589                 1.3530                 1.8888
 IR Active:          YES                    YES                    YES
 IR Intens:       55.315                  5.203                 58.546
 Raman Active:       YES                    YES                    YES
               X      Y      Z        X      Y      Z        X      Y      Z
 C         -0.140 -0.051 -0.003    0.000  0.000  0.047    0.008  0.000  0.000
 O          0.077 -0.058  0.000    0.000  0.000 -0.011   -0.007  0.011  0.000
 O         -0.157  0.100  0.002    0.000  0.000 -0.009    0.016 -0.010  0.000
 C          0.625  0.086  0.001    0.001  0.000 -0.076   -0.070 -0.005  0.000
 C         -0.060 -0.018 -0.036    0.099 -0.019 -0.022   -0.057 -0.086 -0.054
 O         -0.137 -0.031  0.000    0.000  0.000  0.014    0.012  0.005  0.000
 C         -0.002 -0.073  0.000    0.000  0.000  0.041   -0.036 -0.054  0.000
 O         -0.081  0.009  0.000    0.000  0.000  0.008    0.117  0.133  0.000
 C         -0.059 -0.018  0.036   -0.099  0.019 -0.022   -0.057 -0.086  0.054
 H          0.048  0.241  0.203    0.023  0.292  0.479    0.055  0.162 -0.041
 H          0.077 -0.132 -0.240    0.147 -0.214 -0.161    0.079 -0.199 -0.447
 H          0.076  0.175  0.165    0.185 -0.136 -0.152    0.041  0.302  0.313
 H          0.048  0.242 -0.208   -0.024 -0.289  0.481    0.054  0.163  0.040
 H          0.077  0.172 -0.163   -0.185  0.136 -0.156    0.042  0.298 -0.312
 H          0.077 -0.131  0.240   -0.147  0.213 -0.160    0.078 -0.196  0.448
 TransDip   0.226 -0.076  0.000    0.001  0.000  0.073   -0.160 -0.186  0.000

 Mode:                22                     23                     24
 Frequency:      1112.87                1160.52                1244.16
 Force Cnst:      1.8597                 1.7047                 4.4503
 Red. Mass:       2.5486                 2.1483                 4.8797
 IR Active:          YES                    YES                    YES
 IR Intens:       56.004                  8.178                213.762
 Raman Active:       YES                    YES                    YES
               X      Y      Z        X      Y      Z        X      Y      Z
 C          0.000  0.000  0.035   -0.009 -0.007  0.000    0.003 -0.011  0.000
 O          0.000  0.000 -0.009    0.002  0.005  0.000    0.000  0.015  0.000
 O          0.000  0.000 -0.007   -0.010  0.001  0.000    0.006 -0.001  0.000
 C          0.000  0.000 -0.066    0.054 -0.005  0.000   -0.072 -0.031  0.000
 C         -0.059 -0.045 -0.101    0.092 -0.072 -0.034   -0.088 -0.063 -0.024
 O          0.000  0.000  0.015    0.000 -0.016  0.000    0.020 -0.010  0.000
 C         -0.001  0.002  0.313   -0.149  0.210 -0.002    0.381  0.317 -0.001
 O          0.000  0.000 -0.060   -0.010 -0.054  0.000   -0.171 -0.160  0.000
 C          0.060  0.044 -0.100    0.092 -0.072  0.035   -0.088 -0.064  0.024
 H         -0.067 -0.242 -0.013    0.014 -0.211 -0.447    0.098  0.303  0.128
 H         -0.053  0.121  0.355   -0.153  0.166 -0.031    0.064 -0.176 -0.260
 H         -0.057 -0.323 -0.338   -0.198  0.226  0.254    0.172  0.225  0.186
 H          0.067  0.242 -0.011    0.012 -0.208  0.448    0.096  0.300 -0.129
 H          0.056  0.324 -0.343   -0.196  0.220 -0.253    0.172  0.221 -0.183
 H          0.051 -0.118  0.358   -0.153  0.164  0.031    0.066 -0.176  0.263
 TransDip   0.000  0.001  0.240    0.053  0.074 -0.001    0.307  0.353  0.000

 Mode:                25                     26                     27
 Frequency:      1328.55                1332.44                1352.75
 Force Cnst:      9.4412                 1.2583                 1.3826
 Red. Mass:       9.0787                 1.2029                 1.2823
 IR Active:          YES                    YES                    YES
 IR Intens:      127.636                 23.130                 57.727
 Raman Active:       YES                    YES                    YES
               X      Y      Z        X      Y      Z        X      Y      Z
 C          0.461  0.343 -0.001   -0.002 -0.001  0.000    0.050  0.018  0.000
 O          0.009 -0.393 -0.002    0.000  0.001  0.001    0.000 -0.028  0.000
 O         -0.331  0.149  0.002    0.001 -0.001  0.000   -0.036  0.016  0.000
 C         -0.065 -0.019  0.000    0.000  0.000 -0.001    0.005  0.006  0.000
 C          0.005 -0.041  0.042   -0.014  0.054 -0.076   -0.014  0.053 -0.078
 O          0.007 -0.005  0.000    0.000  0.000  0.001   -0.001 -0.007  0.000
 C         -0.004  0.010  0.000    0.000 -0.001 -0.002    0.010  0.017  0.000
 O          0.020  0.008  0.000    0.000  0.000  0.001   -0.010 -0.011  0.000
 C          0.006 -0.045 -0.046    0.014 -0.054 -0.076   -0.014  0.054  0.078
 H          0.076  0.146  0.171    0.096  0.185  0.325   -0.099 -0.186 -0.326
 H         -0.132  0.097  0.223   -0.187  0.146  0.368    0.192 -0.148 -0.371
 H         -0.007  0.216  0.148   -0.053  0.317  0.210    0.051 -0.312 -0.204
 H          0.071  0.135 -0.154   -0.097 -0.184  0.327   -0.099 -0.183  0.326
 H         -0.004  0.198 -0.137    0.054 -0.319  0.214    0.052 -0.312  0.207
 H         -0.121  0.087 -0.203    0.187 -0.143  0.371    0.190 -0.144  0.372
 TransDip   0.314  0.180  0.001   -0.005 -0.002  0.154    0.237 -0.053  0.000

 Mode:                28                     29                     30
 Frequency:      1482.81                1495.36                1500.57
 Force Cnst:      1.3606                 1.3946                 1.4034
 Red. Mass:       1.0503                 1.0586                 1.0578
 IR Active:          YES                    YES                    YES
 IR Intens:        0.320                 14.245                  1.316
 Raman Active:       YES                    YES                    YES
               X      Y      Z        X      Y      Z        X      Y      Z
 C          0.000  0.000  0.000   -0.017  0.016  0.000    0.000  0.000  0.000
 O          0.000  0.000  0.001    0.001 -0.007  0.000    0.000  0.000 -0.001
 O          0.000  0.000  0.000    0.011 -0.006  0.000    0.000  0.000  0.000
 C          0.000  0.000  0.001    0.002  0.004  0.000    0.000  0.000  0.001
 C          0.027  0.029  0.015   -0.016 -0.029 -0.024    0.037 -0.022 -0.022
 O          0.000  0.000  0.000    0.000 -0.003  0.000    0.000  0.000  0.000
 C          0.000  0.000  0.018   -0.015 -0.016  0.000    0.001  0.000 -0.006
 O          0.000  0.000 -0.003    0.002  0.003  0.000    0.000  0.000  0.001
 C         -0.027 -0.028  0.016   -0.017 -0.028  0.023   -0.034  0.022 -0.023
 H          0.152  0.341 -0.331    0.167  0.372 -0.297   -0.120 -0.216 -0.105
 H         -0.166  0.118  0.139   -0.227  0.188  0.065    0.295 -0.307  0.304
 H          0.416 -0.091 -0.084    0.335 -0.148 -0.112    0.278  0.211  0.100
 H         -0.149 -0.344 -0.329    0.169  0.384  0.290    0.117  0.207 -0.130
 H         -0.416  0.089 -0.087    0.323 -0.155  0.119   -0.312 -0.216  0.099
 H          0.167 -0.117  0.140   -0.240  0.200 -0.054   -0.301  0.313  0.321
 TransDip   0.000  0.000  0.018   -0.101  0.066  0.001    0.000  0.000  0.037

 Mode:                31                     32                     33
 Frequency:      1516.51                1644.89                1735.37
 Force Cnst:      1.4307                18.1786                23.3057
 Red. Mass:       1.0559                11.4035                13.1350
 IR Active:          YES                    YES                    YES
 IR Intens:        6.442                507.688                273.699
 Raman Active:       YES                    YES                    YES
               X      Y      Z        X      Y      Z        X      Y      Z
 C          0.000 -0.003  0.000   -0.467  0.671  0.004   -0.012  0.015  0.001
 O          0.000  0.002  0.000    0.052 -0.297 -0.001   -0.003 -0.023  0.000
 O         -0.001  0.001  0.000    0.277 -0.178 -0.002    0.027 -0.010  0.000
 C          0.006  0.002  0.000    0.038 -0.041  0.000   -0.124  0.808 -0.003
 C         -0.035  0.012  0.016   -0.001  0.013 -0.005    0.006 -0.009  0.011
 O          0.000 -0.002  0.000   -0.010 -0.002  0.000    0.073 -0.558  0.002
 C         -0.026  0.011  0.000    0.009  0.029  0.000    0.012 -0.008  0.000
 O          0.004 -0.001  0.000   -0.001 -0.008  0.000   -0.010 -0.010  0.000
 C         -0.037  0.013 -0.018   -0.001  0.013  0.005    0.006 -0.009 -0.011
 H         -0.083 -0.136 -0.214   -0.061 -0.135  0.027    0.017 -0.014  0.050
 H          0.246 -0.271  0.352    0.125 -0.106 -0.094   -0.001 -0.002  0.010
 H          0.387  0.192  0.084   -0.071  0.015  0.008   -0.034  0.043  0.017
 H         -0.077 -0.123  0.209   -0.060 -0.135 -0.027    0.017 -0.014 -0.049
 H          0.373  0.182 -0.078   -0.072  0.015 -0.008   -0.034  0.042 -0.018
 H          0.233 -0.255 -0.333    0.124 -0.104  0.095   -0.002 -0.002 -0.010
 TransDip   0.071 -0.040  0.001   -0.454  0.561  0.005   -0.168  0.503 -0.002

 Mode:                34                     35                     36
 Frequency:      2980.46                2988.34                3038.38
 Force Cnst:      5.4218                 5.4475                 5.9775
 Red. Mass:       1.0359                 1.0354                 1.0990
 IR Active:          YES                    YES                    YES
 IR Intens:       93.384                145.521                 70.887
 Raman Active:       YES                    YES                    YES
               X      Y      Z        X      Y      Z        X      Y      Z
 C          0.000  0.000  0.000    0.000  0.000  0.000    0.000  0.000  0.000
 O          0.000  0.000  0.000    0.000  0.000  0.000    0.000  0.000  0.000
 O          0.000  0.000  0.000    0.000  0.000  0.000    0.000  0.000  0.000
 C          0.000  0.000  0.001    0.002 -0.001  0.000    0.000  0.000  0.000
 C          0.021 -0.014  0.021   -0.022  0.015 -0.026    0.039 -0.033 -0.036
 O          0.000  0.000  0.000    0.000  0.001  0.000    0.000  0.000  0.000
 C          0.000  0.000  0.000   -0.003 -0.001  0.000    0.000  0.000 -0.001
 O          0.000  0.000  0.000    0.001  0.000  0.000    0.000  0.000  0.000
 C         -0.024  0.017  0.024   -0.020  0.014  0.022   -0.041  0.035 -0.039
 H          0.533 -0.234  0.022    0.453 -0.200  0.016    0.389 -0.163  0.001
 H         -0.203 -0.196  0.001   -0.180 -0.173  0.002    0.070  0.090 -0.007
 H         -0.038  0.233 -0.307   -0.032  0.208 -0.279    0.031 -0.337  0.467
 H         -0.461  0.199  0.016    0.517 -0.225 -0.015   -0.376  0.155 -0.002
 H          0.036 -0.207 -0.269   -0.040  0.245  0.324   -0.032  0.318  0.436
 H          0.176  0.172  0.001   -0.207 -0.201 -0.002   -0.061 -0.080 -0.006
 TransDip  -0.027  0.016  0.308   -0.332  0.196 -0.025   -0.004  0.004 -0.270

 Mode:                37                     38                     39
 Frequency:      3044.76                3089.20                3096.24
 Force Cnst:      5.9930                 6.1858                 6.2076
 Red. Mass:       1.0972                 1.1001                 1.0990
 IR Active:          YES                    YES                    YES
 IR Intens:      103.712                  2.892                 89.974
 Raman Active:       YES                    YES                    YES
               X      Y      Z        X      Y      Z        X      Y      Z
 C          0.000  0.000  0.000    0.000  0.000  0.000    0.000 -0.001  0.000
 O          0.000  0.000  0.000    0.000  0.000  0.001   -0.001  0.000  0.000
 O          0.000  0.000  0.000    0.000  0.000  0.000    0.000  0.000  0.000
 C         -0.001  0.000  0.000    0.000  0.000  0.000    0.000  0.000  0.000
 C          0.040 -0.036 -0.037    0.044  0.042  0.013   -0.049 -0.044 -0.013
 O          0.000  0.000  0.000    0.000  0.000  0.000    0.000  0.000  0.000
 C          0.003 -0.003  0.000    0.000  0.000  0.002   -0.003 -0.002  0.000
 O         -0.001  0.001  0.000    0.000  0.000 -0.001    0.001  0.000  0.000
 C          0.038 -0.033  0.036   -0.048 -0.046  0.014   -0.045 -0.041  0.012
 H         -0.380  0.160  0.004    0.135 -0.069  0.007    0.136 -0.070  0.006
 H         -0.048 -0.067  0.008    0.475  0.479  0.013    0.439  0.443  0.013
 H         -0.030  0.314 -0.439   -0.027  0.136 -0.196   -0.024  0.118 -0.170
 H         -0.407  0.170 -0.007   -0.127  0.064  0.005    0.150 -0.076 -0.005
 H         -0.035  0.332  0.459    0.027 -0.125 -0.178   -0.027  0.127  0.182
 H         -0.046 -0.066 -0.008   -0.436 -0.444  0.012    0.474  0.483 -0.014
 TransDip   0.252 -0.207 -0.004   -0.005 -0.009 -0.053   -0.173 -0.249  0.003

 STANDARD THERMODYNAMIC QUANTITIES AT   298.15 K  AND     1.00 ATM

   This Molecule has  1 Imaginary Frequencies
   Zero point vibrational energy:       65.456 kcal/mol

   Atom    1 Element C  Has Mass   12.00000
   Atom    2 Element O  Has Mass   15.99491
   Atom    3 Element O  Has Mass   15.99491
   Atom    4 Element C  Has Mass   12.00000
   Atom    5 Element C  Has Mass   12.00000
   Atom    6 Element O  Has Mass   15.99491
   Atom    7 Element C  Has Mass   12.00000
   Atom    8 Element O  Has Mass   15.99491
   Atom    9 Element C  Has Mass   12.00000
   Atom   10 Element H  Has Mass    1.00783
   Atom   11 Element H  Has Mass    1.00783
   Atom   12 Element H  Has Mass    1.00783
   Atom   13 Element H  Has Mass    1.00783
   Atom   14 Element H  Has Mass    1.00783
   Atom   15 Element H  Has Mass    1.00783
   Molecular Mass:   130.026620 amu
   Principal axes and moments of inertia in amu*Bohr^2:
                             1           2           3
    Eigenvalues --      708.06392  1385.53735  1700.56814
          X               0.99896    -0.04560     0.00006
          Y               0.04560     0.99896     0.00013
          Z              -0.00007    -0.00013     1.00000
   Rotational Symmetry Number is   1
   The Molecule is an Asymmetric Top
   Translational Enthalpy:        0.889 kcal/mol
   Rotational Enthalpy:           0.889 kcal/mol
   Vibrational Enthalpy:         69.042 kcal/mol
   gas constant (RT):             0.592 kcal/mol
   Translational Entropy:        40.501  cal/mol.K
   Rotational Entropy:           28.902  cal/mol.K
   Vibrational Entropy:          20.164  cal/mol.K

   Total Enthalpy:               71.412 kcal/mol
   Total Entropy:                89.566  cal/mol.K
Archival summary:
1\1\bt2600-13\FREQ\ProcedureUnspecified\6-31+G*\456(2-,1)\emavera\TueJun622:59:222017TueJun622:59:222017\0\\#,FREQ,ProcedureUnspecified,6-31+G*,\\-2,1\O\C,1,1.22023\C,2,1.60195,1,119.519\O,3,1.33994,2,114.043,1,0.0897125,0\C,3,1.57683,2,106.027,1,123.013,0\H,5,1.09708,3,113.616,2,56.4832,0\H,5,1.1005,3,108.477,2,-65.834,0\H,5,1.10166,3,106.985,2,178.63,0\C,3,1.57742,2,105.987,1,-122.851,0\H,9,1.09716,3,113.57,2,-56.22,0\H,9,1.10048,3,108.512,2,66.0699,0\H,9,1.10182,3,106.987,2,-178.324,0\C,2,1.62121,1,117.381,3,179.978,0\O,13,1.25924,2,115.41,1,-0.572564,0\O,13,1.2656,2,117.31,1,179.438,0\\\@

 Total job time:  2947.38s(wall), 2947.27s(cpu) 
 Tue Jun  6 22:59:22 2017

        *************************************************************
        *                                                           *
        *  Thank you very much for using Q-Chem.  Have a nice day.  *
        *                                                           *
        *************************************************************


0 sent ACK to 0 
now end server 0 ... 
cleanup process ... done
