Jobname.Temp
FREQ      R                             6-31+G(d)           
Number of atoms                            I               15
Charge                                     I               -2
Multiplicity                               I                1
Number of electrons                        I               70
Number of alpha electrons                  I               35
Number of beta electrons                   I               35
Atomic numbers                             I   N=          15
           6           8           8           6           8           6
           8           6           1           1           1           6
           1           1           1
Current cartesian coordinates              R   N=          45
  2.97639931E+00 -1.18074769E-01  5.68767103E-01  3.75369403E+00  1.90708637E+00
  1.51255180E+00  4.14340113E+00 -2.20917084E+00  7.15219879E-01  4.40052367E-01
 -5.86787291E-01 -1.05930848E+00 -9.38492409E-01  3.02147017E+00 -1.49363870E+00
  7.63023709E-01 -1.92168656E+00 -3.01074747E+00 -2.19798766E+00 -5.97554365E-01
 -2.34324005E-02 -3.97618978E+00 -1.60743798E+00 -1.27130970E+00 -2.84335308E+00
 -1.86751340E-02  2.76154837E+00 -2.59437246E+00  1.95139741E+00  3.34486165E+00
 -1.69627325E+00 -1.19927994E+00  4.03173978E+00 -4.84287290E+00 -5.48252746E-01
  2.97533839E+00 -1.74294104E+00  2.94686873E+00 -3.38726173E+00  8.80631535E-01
  3.99763028E+00 -1.42486964E+00 -2.25108862E+00  4.04084402E+00 -2.28062008E-01
Nuclear charges                            R   N=          15
  6.00000000E+00  8.00000000E+00  8.00000000E+00  6.00000000E+00  8.00000000E+00
  6.00000000E+00  8.00000000E+00  6.00000000E+00  1.00000000E+00  1.00000000E+00
  1.00000000E+00  6.00000000E+00  1.00000000E+00  1.00000000E+00  1.00000000E+00
Number of basis functions                  I              183
Number of contracted shells                I               57
Number of primitive shells                 I              132
Highest angular momentum                   I                2
Largest degree of contraction              I                6
Shell types                                I   N=          57
           0          -1          -1          -1           2           0
          -1          -1          -1           2           0          -1
          -1          -1           2           0          -1          -1
          -1           2           0          -1          -1          -1
           2           0          -1          -1          -1           2
           0          -1          -1          -1           2           0
          -1          -1          -1           2           0           0
           0           0           0           0           0          -1
          -1          -1           2           0           0           0
           0           0           0
Number of primitives per shell             I   N=          57
           6           3           1           1           1           6
           3           1           1           1           6           3
           1           1           1           6           3           1
           1           1           6           3           1           1
           1           6           3           1           1           1
           6           3           1           1           1           6
           3           1           1           1           3           1
           3           1           3           1           6           3
           1           1           1           3           1           3
           1           3           1
Shell to atom map                          I   N=          57
           1           1           1           1           1           2
           2           2           2           2           3           3
           3           3           3           4           4           4
           4           4           5           5           5           5
           5           6           6           6           6           6
           7           7           7           7           7           8
           8           8           8           8           9           9
          10          10          11          11          12          12
          12          12          12          13          13          14
          14          15          15
Primitive exponents                        R   N=         132
  3.04752490E+03  4.57369510E+02  1.03948690E+02  2.92101550E+01  9.28666300E+00
  3.16392700E+00  7.86827240E+00  1.88128850E+00  5.44249300E-01  1.68714400E-01
  4.38000000E-02  8.00000000E-01  5.48467170E+03  8.25234950E+02  1.88046960E+02
  5.29645000E+01  1.68975700E+01  5.79963530E+00  1.55396160E+01  3.59993360E+00
  1.01376180E+00  2.70005800E-01  8.45000000E-02  8.00000000E-01  5.48467170E+03
  8.25234950E+02  1.88046960E+02  5.29645000E+01  1.68975700E+01  5.79963530E+00
  1.55396160E+01  3.59993360E+00  1.01376180E+00  2.70005800E-01  8.45000000E-02
  8.00000000E-01  3.04752490E+03  4.57369510E+02  1.03948690E+02  2.92101550E+01
  9.28666300E+00  3.16392700E+00  7.86827240E+00  1.88128850E+00  5.44249300E-01
  1.68714400E-01  4.38000000E-02  8.00000000E-01  5.48467170E+03  8.25234950E+02
  1.88046960E+02  5.29645000E+01  1.68975700E+01  5.79963530E+00  1.55396160E+01
  3.59993360E+00  1.01376180E+00  2.70005800E-01  8.45000000E-02  8.00000000E-01
  3.04752490E+03  4.57369510E+02  1.03948690E+02  2.92101550E+01  9.28666300E+00
  3.16392700E+00  7.86827240E+00  1.88128850E+00  5.44249300E-01  1.68714400E-01
  4.38000000E-02  8.00000000E-01  5.48467170E+03  8.25234950E+02  1.88046960E+02
  5.29645000E+01  1.68975700E+01  5.79963530E+00  1.55396160E+01  3.59993360E+00
  1.01376180E+00  2.70005800E-01  8.45000000E-02  8.00000000E-01  3.04752490E+03
  4.57369510E+02  1.03948690E+02  2.92101550E+01  9.28666300E+00  3.16392700E+00
  7.86827240E+00  1.88128850E+00  5.44249300E-01  1.68714400E-01  4.38000000E-02
  8.00000000E-01  1.87311370E+01  2.82539370E+00  6.40121700E-01  1.61277800E-01
  1.87311370E+01  2.82539370E+00  6.40121700E-01  1.61277800E-01  1.87311370E+01
  2.82539370E+00  6.40121700E-01  1.61277800E-01  3.04752490E+03  4.57369510E+02
  1.03948690E+02  2.92101550E+01  9.28666300E+00  3.16392700E+00  7.86827240E+00
  1.88128850E+00  5.44249300E-01  1.68714400E-01  4.38000000E-02  8.00000000E-01
  1.87311370E+01  2.82539370E+00  6.40121700E-01  1.61277800E-01  1.87311370E+01
  2.82539370E+00  6.40121700E-01  1.61277800E-01  1.87311370E+01  2.82539370E+00
  6.40121700E-01  1.61277800E-01
Contraction coefficients                   R   N=         132
  3.17779390E-03  2.43133190E-02  1.19238892E-01  4.02155213E-01  8.10498179E-01
  6.27542848E-01 -1.19332409E-01 -1.60854212E-01  1.14345648E+00  1.00000000E+00
  1.00000000E+00  1.00000000E+00  3.17155790E-03  2.41622794E-02  1.18550378E-01
  4.03072948E-01  8.14398079E-01  6.20976348E-01 -1.10777504E-01 -1.48026305E-01
  1.13076704E+00  1.00000000E+00  1.00000000E+00  1.00000000E+00  3.17155790E-03
  2.41622794E-02  1.18550378E-01  4.03072948E-01  8.14398079E-01  6.20976348E-01
 -1.10777504E-01 -1.48026305E-01  1.13076704E+00  1.00000000E+00  1.00000000E+00
  1.00000000E+00  3.17779390E-03  2.43133190E-02  1.19238892E-01  4.02155213E-01
  8.10498179E-01  6.27542848E-01 -1.19332409E-01 -1.60854212E-01  1.14345648E+00
  1.00000000E+00  1.00000000E+00  1.00000000E+00  3.17155790E-03  2.41622794E-02
  1.18550378E-01  4.03072948E-01  8.14398079E-01  6.20976348E-01 -1.10777504E-01
 -1.48026305E-01  1.13076704E+00  1.00000000E+00  1.00000000E+00  1.00000000E+00
  3.17779390E-03  2.43133190E-02  1.19238892E-01  4.02155213E-01  8.10498179E-01
  6.27542848E-01 -1.19332409E-01 -1.60854212E-01  1.14345648E+00  1.00000000E+00
  1.00000000E+00  1.00000000E+00  3.17155790E-03  2.41622794E-02  1.18550378E-01
  4.03072948E-01  8.14398079E-01  6.20976348E-01 -1.10777504E-01 -1.48026305E-01
  1.13076704E+00  1.00000000E+00  1.00000000E+00  1.00000000E+00  3.17779390E-03
  2.43133190E-02  1.19238892E-01  4.02155213E-01  8.10498179E-01  6.27542848E-01
 -1.19332409E-01 -1.60854212E-01  1.14345648E+00  1.00000000E+00  1.00000000E+00
  1.00000000E+00  5.80143482E-02  4.06558998E-01  1.40946902E+00  1.73205081E+00
  5.80143482E-02  4.06558998E-01  1.40946902E+00  1.73205081E+00  5.80143482E-02
  4.06558998E-01  1.40946902E+00  1.73205081E+00  3.17779390E-03  2.43133190E-02
  1.19238892E-01  4.02155213E-01  8.10498179E-01  6.27542848E-01 -1.19332409E-01
 -1.60854212E-01  1.14345648E+00  1.00000000E+00  1.00000000E+00  1.00000000E+00
  5.80143482E-02  4.06558998E-01  1.40946902E+00  1.73205081E+00  5.80143482E-02
  4.06558998E-01  1.40946902E+00  1.73205081E+00  5.80143482E-02  4.06558998E-01
  1.40946902E+00  1.73205081E+00
P(S=P) Contraction coefficients            R   N=         132
  0.00000000E+00  0.00000000E+00  0.00000000E+00  0.00000000E+00  0.00000000E+00
  0.00000000E+00  1.19509939E-01  5.48062410E-01  1.28917971E+00  1.73205081E+00
  1.73205081E+00  0.00000000E+00  0.00000000E+00  0.00000000E+00  0.00000000E+00
  0.00000000E+00  0.00000000E+00  0.00000000E+00  1.22757888E-01  5.88469108E-01
  1.25947563E+00  1.73205081E+00  1.73205081E+00  0.00000000E+00  0.00000000E+00
  0.00000000E+00  0.00000000E+00  0.00000000E+00  0.00000000E+00  0.00000000E+00
  1.22757888E-01  5.88469108E-01  1.25947563E+00  1.73205081E+00  1.73205081E+00
  0.00000000E+00  0.00000000E+00  0.00000000E+00  0.00000000E+00  0.00000000E+00
  0.00000000E+00  0.00000000E+00  1.19509939E-01  5.48062410E-01  1.28917971E+00
  1.73205081E+00  1.73205081E+00  0.00000000E+00  0.00000000E+00  0.00000000E+00
  0.00000000E+00  0.00000000E+00  0.00000000E+00  0.00000000E+00  1.22757888E-01
  5.88469108E-01  1.25947563E+00  1.73205081E+00  1.73205081E+00  0.00000000E+00
  0.00000000E+00  0.00000000E+00  0.00000000E+00  0.00000000E+00  0.00000000E+00
  0.00000000E+00  1.19509939E-01  5.48062410E-01  1.28917971E+00  1.73205081E+00
  1.73205081E+00  0.00000000E+00  0.00000000E+00  0.00000000E+00  0.00000000E+00
  0.00000000E+00  0.00000000E+00  0.00000000E+00  1.22757888E-01  5.88469108E-01
  1.25947563E+00  1.73205081E+00  1.73205081E+00  0.00000000E+00  0.00000000E+00
  0.00000000E+00  0.00000000E+00  0.00000000E+00  0.00000000E+00  0.00000000E+00
  1.19509939E-01  5.48062410E-01  1.28917971E+00  1.73205081E+00  1.73205081E+00
  0.00000000E+00  0.00000000E+00  0.00000000E+00  0.00000000E+00  0.00000000E+00
  0.00000000E+00  0.00000000E+00  0.00000000E+00  0.00000000E+00  0.00000000E+00
  0.00000000E+00  0.00000000E+00  0.00000000E+00  0.00000000E+00  0.00000000E+00
  0.00000000E+00  0.00000000E+00  0.00000000E+00  0.00000000E+00  1.19509939E-01
  5.48062410E-01  1.28917971E+00  1.73205081E+00  1.73205081E+00  0.00000000E+00
  0.00000000E+00  0.00000000E+00  0.00000000E+00  0.00000000E+00  0.00000000E+00
  0.00000000E+00  0.00000000E+00  0.00000000E+00  0.00000000E+00  0.00000000E+00
  0.00000000E+00  0.00000000E+00
Coordinates of each shell                  R   N=         171
  2.97639931E+00 -1.18074769E-01  5.68767103E-01  2.97639931E+00 -1.18074769E-01
  5.68767103E-01  2.97639931E+00 -1.18074769E-01  5.68767103E-01  2.97639931E+00
 -1.18074769E-01  5.68767103E-01  2.97639931E+00 -1.18074769E-01  5.68767103E-01
  3.75369403E+00  1.90708637E+00  1.51255180E+00  3.75369403E+00  1.90708637E+00
  1.51255180E+00  3.75369403E+00  1.90708637E+00  1.51255180E+00  3.75369403E+00
  1.90708637E+00  1.51255180E+00  3.75369403E+00  1.90708637E+00  1.51255180E+00
  4.14340113E+00 -2.20917084E+00  7.15219879E-01  4.14340113E+00 -2.20917084E+00
  7.15219879E-01  4.14340113E+00 -2.20917084E+00  7.15219879E-01  4.14340113E+00
 -2.20917084E+00  7.15219879E-01  4.14340113E+00 -2.20917084E+00  7.15219879E-01
  4.40052367E-01 -5.86787291E-01 -1.05930848E+00  4.40052367E-01 -5.86787291E-01
 -1.05930848E+00  4.40052367E-01 -5.86787291E-01 -1.05930848E+00  4.40052367E-01
 -5.86787291E-01 -1.05930848E+00  4.40052367E-01 -5.86787291E-01 -1.05930848E+00
 -9.38492409E-01  3.02147017E+00 -1.49363870E+00 -9.38492409E-01  3.02147017E+00
 -1.49363870E+00 -9.38492409E-01  3.02147017E+00 -1.49363870E+00 -9.38492409E-01
  3.02147017E+00 -1.49363870E+00 -9.38492409E-01  3.02147017E+00 -1.49363870E+00
  7.63023709E-01 -1.92168656E+00 -3.01074747E+00  7.63023709E-01 -1.92168656E+00
 -3.01074747E+00  7.63023709E-01 -1.92168656E+00 -3.01074747E+00  7.63023709E-01
 -1.92168656E+00 -3.01074747E+00  7.63023709E-01 -1.92168656E+00 -3.01074747E+00
 -2.19798766E+00 -5.97554365E-01 -2.34324005E-02 -2.19798766E+00 -5.97554365E-01
 -2.34324005E-02 -2.19798766E+00 -5.97554365E-01 -2.34324005E-02 -2.19798766E+00
 -5.97554365E-01 -2.34324005E-02 -2.19798766E+00 -5.97554365E-01 -2.34324005E-02
 -3.97618978E+00 -1.60743798E+00 -1.27130970E+00 -3.97618978E+00 -1.60743798E+00
 -1.27130970E+00 -3.97618978E+00 -1.60743798E+00 -1.27130970E+00 -3.97618978E+00
 -1.60743798E+00 -1.27130970E+00 -3.97618978E+00 -1.60743798E+00 -1.27130970E+00
 -2.84335308E+00 -1.86751340E-02  2.76154837E+00 -2.84335308E+00 -1.86751340E-02
  2.76154837E+00 -2.59437246E+00  1.95139741E+00  3.34486165E+00 -2.59437246E+00
  1.95139741E+00  3.34486165E+00 -1.69627325E+00 -1.19927994E+00  4.03173978E+00
 -1.69627325E+00 -1.19927994E+00  4.03173978E+00 -4.84287290E+00 -5.48252746E-01
  2.97533839E+00 -4.84287290E+00 -5.48252746E-01  2.97533839E+00 -4.84287290E+00
 -5.48252746E-01  2.97533839E+00 -4.84287290E+00 -5.48252746E-01  2.97533839E+00
 -4.84287290E+00 -5.48252746E-01  2.97533839E+00 -1.74294104E+00  2.94686873E+00
 -3.38726173E+00 -1.74294104E+00  2.94686873E+00 -3.38726173E+00  8.80631535E-01
  3.99763028E+00 -1.42486964E+00  8.80631535E-01  3.99763028E+00 -1.42486964E+00
 -2.25108862E+00  4.04084402E+00 -2.28062008E-01 -2.25108862E+00  4.04084402E+00
 -2.28062008E-01
SCF Energy                                 R     -4.941802990800433E+02
Number of independent functions            I              183
Alpha MO coefficients                      R   N=       33489
  8.71640036E-06 -1.94887141E-05 -1.57155734E-05 -1.10439954E-05 -2.08786415E-05
 -1.60004724E-06 -4.77457123E-05 -2.20735868E-04 -7.76094160E-05 -2.06146166E-03
  8.86945035E-04 -8.56571339E-04  2.89382441E-04  5.35683224E-05  5.10147977E-05
  3.04175488E-05 -4.36003869E-05  1.60739931E-05 -1.67554634E-05 -1.18644264E-05
 -4.80879874E-05  1.17694754E-05  4.06274590E-06  6.13151193E-06  1.69582625E-04
 -1.27352707E-04 -5.01986405E-05 -8.18286443E-05  3.54846939E-04  5.84998404E-05
  8.45593064E-05 -3.57695882E-05  7.37797521E-06 -1.71150420E-05 -1.56439563E-05
 -1.93012139E-05  3.57605577E-05 -9.29105880E-06  1.23912191E-05  6.13728642E-05
 -1.58177148E-05 -2.55011742E-07 -1.09823440E-05 -3.27590218E-04  1.45486071E-04
 -1.03878933E-04  6.84249265E-05 -2.01165936E-05 -1.20015146E-06 -3.33199257E-06
 -1.00649753E-04  2.53058724E-05  1.53243324E-05  4.90808019E-05  2.63747824E-05
 -4.14866156E-06  7.63148138E-06 -6.32043816E-06  8.66103289E-05  5.07518272E-05
 -8.25823001E-05  3.28781088E-05  8.43087158E-04 -4.77248713E-04 -1.26862957E-04
  1.15943860E-04  2.61529308E-02 -4.41891052E-03  1.80288272E-03 -3.39324471E-03
 -2.70549984E-05 -2.28093787E-04 -4.27543739E-05  7.16863503E-05 -2.33228464E-05
  3.57922946E-05  9.92511868E-01  2.49642459E-02 -8.00511612E-06  7.49461240E-04
 -2.97329874E-04  1.65440377E-02  2.08793071E-05 -8.89632803E-04  2.54594410E-04
 -8.97618209E-03 -4.74883668E-04  1.95758436E-03 -1.49278712E-05 -8.86211353E-03
 -8.79009042E-03 -8.85588171E-03 -6.04642557E-06 -4.59165380E-06 -2.42641547E-05
  1.37854247E-07 -4.44279011E-05 -1.09435539E-05  3.11412572E-05  8.90183481E-06
 -9.10670871E-05 -5.93335230E-05  9.47935125E-05  2.03674553E-05 -1.44135284E-02
  1.53419137E-03 -2.73404247E-03 -1.89003090E-03  8.14545640E-06  5.58464428E-05
  1.27867480E-05 -2.06802642E-05 -5.91783748E-06  1.27001871E-05  8.10734970E-06
  6.72919265E-05 -7.84639861E-06  1.54995020E-05 -1.28157253E-05  1.33964902E-04
  3.50921883E-05 -1.68869863E-04  1.91339051E-04 -4.00036558E-03 -1.94674864E-03
  5.14648264E-04  8.81712165E-04 -9.61540790E-06 -1.55189885E-04 -8.99092267E-06
 -6.41881475E-05  2.31920927E-05  8.07685193E-05 -6.96255268E-06 -8.56292066E-05
  9.41719925E-06  3.90786912E-05 -1.08741766E-06  3.65261959E-04  3.89733818E-04
  1.24465660E-04 -2.93865508E-05 -2.93746090E-03 -6.76869395E-04 -5.92549690E-04
 -1.92987912E-04  2.51331927E-05  4.52021067E-05 -8.86810724E-06  4.86565255E-05
  3.29492911E-06 -1.69458576E-05 -3.34082721E-05  5.26936300E-04  1.57835542E-05
 -1.91673188E-04 -1.78961950E-06 -2.75215632E-04  1.38673412E-05  7.14214659E-05
 -1.09735521E-05 -1.48428788E-06 -8.47311670E-07 -7.15699396E-04 -1.88579022E-04
 -6.76622116E-05  1.82796285E-04 -5.27973036E-04 -2.13307346E-04 -5.99164953E-05
  1.30971694E-04  9.33232068E-06  1.84716891E-05  5.89229974E-06  2.76742000E-07
  6.39172518E-06 -5.41058668E-06  1.63919540E-04 -2.15970128E-04  1.99916331E-04
 -2.78450192E-04  1.88417607E-04 -5.78122729E-04 -1.44432762E-05 -1.10302056E-04
 -2.12037937E-05  1.56324958E-05 -2.77960796E-05  2.68524365E-04 -1.01572449E-03
  2.53353603E-04 -1.14963213E-04 -6.35740033E-03  1.64310732E-03  2.33212618E-04
  3.32711376E-04  7.19511678E-05 -1.70199366E-05 -4.03005921E-05  1.39251352E-05
  2.49612345E-06  1.72390164E-06  6.49879022E-06  3.34193373E-05 -7.35117854E-06
  8.27573345E-06  9.80175236E-06 -2.29388875E-04  1.87288932E-04 -7.81490297E-05
 -2.22634957E-05  4.36731887E-04 -1.43182579E-04 -1.75865221E-04  1.80890630E-05
  8.22289246E-06  3.69823679E-05 -7.56921225E-06 -1.29653831E-05 -6.69811096E-06
  1.61431525E-05 -1.20072626E-05 -6.08567037E-05  1.18303391E-05 -2.26565238E-05
  5.17394983E-06  3.39229193E-04 -2.34180392E-05  2.51711044E-04 -2.12376775E-05
  6.46636716E-04 -8.64970617E-05  1.08022734E-04 -9.99474406E-05 -3.77027326E-05
 -6.42782344E-06 -6.15030645E-05 -1.13106195E-05  1.41707029E-05 -8.70670926E-06
 -3.51213607E-05 -2.18213166E-04 -1.37620149E-04  2.09169836E-05  6.43659464E-05
 -2.56341832E-04 -4.29122743E-04 -4.93191595E-04 -7.86138751E-04  9.75246026E-03
  6.41586723E-04  6.57829781E-04  2.71185689E-03  4.59759055E-04  4.94994800E-06
  1.00550714E-05  2.12852241E-05 -2.17128150E-04 -1.57741897E-05 -2.21195124E-05
  2.86280357E-05 -2.10921219E-05  2.52161049E-06 -3.07074281E-07  2.71223614E-04
  2.01780156E-04  1.59496586E-04 -3.73038120E-05  3.83039389E-04 -2.02469073E-04
 -5.01479220E-04  1.13837547E-04 -3.61041298E-06 -1.71042121E-04 -3.89426325E-05
 -7.04682822E-05  5.29379666E-05  6.76839653E-05  4.00470430E-06  1.28666648E-04
  2.75038210E-05  8.92870165E-06 -1.34828622E-06 -4.67414750E-04  2.08544354E-05
 -1.87583750E-04 -1.99298166E-04 -1.54716537E-03  1.73906243E-04 -1.77685715E-04
 -7.80974258E-04 -8.33195458E-05 -1.28254744E-05 -4.00079256E-05  7.28726720E-06
  4.01619217E-05 -3.07789124E-05  9.92451975E-01  2.50296223E-02 -1.34318078E-04
 -5.72538646E-04 -9.77297130E-04  1.68167490E-02  2.50920698E-04  7.11401647E-04
  1.22478099E-03 -7.87138582E-03 -1.26716685E-03 -1.01132520E-03 -8.80104189E-04
 -9.20982257E-03 -8.98530773E-03 -9.01541214E-03 -5.44321178E-05 -1.58851800E-05
 -6.36288537E-05  1.32380310E-05  4.16036204E-04  4.46306860E-04  2.25128643E-04
  2.58337114E-04 -5.71894554E-04 -3.27220664E-04 -2.05596855E-04 -2.65879418E-04
  1.06645037E-03  4.42584416E-04  2.49055794E-04  2.66572376E-04  3.20868235E-05
 -8.82737247E-05 -7.61972194E-05  8.68543076E-05  1.09861452E-04  5.33200762E-05
 -1.52306585E-04 -1.04057255E-03  1.09640132E-04  6.11285603E-04  7.79542327E-05
  6.57684136E-04 -6.05886457E-06  8.18818491E-05 -1.65617771E-05  1.63814332E-05
  1.07068934E-04  8.41379944E-04  1.29570226E-04  8.85708238E-05 -2.50417717E-06
 -8.32684706E-04 -3.24875015E-04 -4.48574229E-05  6.25980068E-05 -6.90907391E-05
 -1.06383877E-05 -1.76720012E-04  2.85951458E-05  1.60996141E-04 -3.62203159E-06
  3.54545588E-05 -1.45976858E-04 -5.45087709E-05 -1.62173671E-04  7.96083344E-05
  1.63177781E-05 -2.71735414E-05  3.70892703E-04  1.28680638E-04  2.94357082E-04
  1.55424876E-04  4.00436055E-04 -1.30316993E-04 -6.83464503E-04 -2.74563706E-04
  8.86400706E-03 -1.65245010E-03  2.47265208E-03 -2.58219872E-06 -1.59283384E-04
 -2.83139309E-04 -1.99901977E-04 -4.87850435E-05 -2.99167449E-06 -5.59152406E-05
  9.92572096E-01  2.51728872E-02 -3.98207600E-04 -8.92134045E-04 -5.20214190E-04
  1.55829436E-02  4.58688615E-05  4.08649009E-04  1.95811729E-04 -7.69588900E-03
  4.70676218E-04  4.70316941E-05  1.59015378E-04 -8.62478160E-03 -8.64242537E-03
 -8.62871771E-03  3.17753351E-06  4.86175626E-06 -5.34405011E-06 -1.33776707E-04
  1.13407908E-04 -4.85122900E-06 -1.46139094E-06 -1.28639809E-05 -5.05590926E-04
  6.37315624E-07 -5.95463213E-05  3.95531577E-05  4.85307082E-04  3.04280921E-04
 -2.75023971E-05  8.63821939E-06  1.05327084E-04 -5.46494695E-05  6.10048512E-05
 -3.95449894E-05  2.07353162E-05 -5.16889947E-05  2.32164102E-06 -2.50363004E-06
  2.00364595E-05  6.10029111E-06  1.59868126E-05  1.61520983E-05  7.51775617E-06
  5.23063867E-05 -1.57316084E-04  1.79083548E-03 -2.48289736E-03 -2.64329259E-03
 -3.21896493E-03  9.75129073E-06  9.98530286E-06  1.87688357E-05 -9.47308220E-06
  3.05638352E-06  3.80774663E-07  1.09260492E-05  3.44347081E-06  5.11374135E-06
 -4.84253002E-06 -4.06231893E-07 -1.25900775E-04 -6.19822780E-06  5.29253128E-06
  3.27767307E-05  4.38436481E-04 -1.58428835E-04 -2.32668744E-04  3.25073117E-04
  2.97473297E-05  8.01261025E-06  1.66722456E-05 -2.20531497E-05  2.54291537E-05
 -2.58355821E-06  8.28134975E-07  1.74927187E-05 -9.38919421E-06 -1.63077492E-05
 -4.36625828E-06 -9.07618673E-05 -8.94822257E-05 -4.14586843E-05 -3.72740607E-05
 -6.44876181E-03  7.60282018E-04 -7.82644519E-04 -8.20727765E-04  1.43849499E-07
 -9.74459256E-06 -1.01123049E-05 -2.36046911E-06 -2.38832178E-05 -9.85587293E-06
 -3.18290276E-06 -5.91811716E-06 -1.97221406E-05  7.24591352E-06  8.34604248E-06
 -6.71267464E-06  1.48109530E-04 -3.93978096E-05 -4.22171348E-05 -1.36225662E-03
  7.23261335E-05  2.48150546E-04  8.83305338E-04  1.09680686E-06 -1.22761761E-05
 -1.56934870E-05 -6.18737558E-06 -3.82865742E-06 -9.21724774E-08 -2.02113538E-05
 -7.86272625E-05  5.97053673E-06  1.24978105E-05  8.07356789E-06  8.19861444E-04
  1.46302555E-04  6.98025258E-05  5.74222809E-05 -6.41289332E-04 -1.78330338E-04
  2.02269214E-05 -4.02790577E-05 -3.04180697E-05 -3.03386573E-05 -2.92953179E-05
  6.41166617E-06  5.40842239E-06  8.00467921E-06 -3.03396884E-05  4.45603784E-05
 -2.67089158E-05 -1.38204207E-04 -8.45393057E-06 -1.67233748E-04 -4.17914842E-06
 -1.68224008E-05  1.59965672E-06 -6.21294019E-07 -1.47704046E-05  5.16763965E-05
 -1.12468550E-06  2.73372296E-06  4.97602368E-05 -2.58209508E-04 -1.75482351E-04
 -4.48414395E-05  1.56820102E-05 -1.92773291E-06 -9.35483513E-06 -7.29546957E-06
  6.56601005E-07  1.34615567E-06 -2.28474175E-07 -7.50149257E-06  4.44157555E-05
  3.24362370E-05  1.85907474E-04  4.09709683E-06 -2.91300544E-04 -2.94856253E-05
  3.25819784E-04  1.72974214E-04 -3.25819986E-04  1.62804146E-05  5.01411731E-04
 -3.07945342E-05  5.99506380E-04  1.01542538E-04  6.56143283E-03 -5.88923418E-04
 -2.79622261E-03 -1.07599356E-03 -1.32373981E-04 -2.01848489E-04 -1.47930156E-04
  3.75724258E-05  4.00472355E-05  1.41601282E-05  1.66876509E-04  1.04951837E-04
 -5.18402649E-06  9.28971872E-06  5.97495471E-07 -4.19896921E-04 -2.73340915E-05
  6.29976724E-05  6.47440936E-07  1.55307667E-04  3.61912796E-04  2.03659481E-04
  2.45942669E-04  7.71831398E-05 -8.13522713E-05  6.69479332E-05  5.99375102E-05
  3.39761708E-05 -5.10391440E-06  9.92580546E-01  2.52050926E-02 -4.55836274E-04
  9.52436646E-04 -5.86318643E-05  1.53184494E-02  1.01042828E-04 -5.16255376E-04
 -2.03456581E-05 -7.66107727E-03  4.59027273E-04 -1.36385205E-04  1.23889356E-04
 -8.59955800E-03 -8.66059714E-03 -8.60241755E-03  2.42713063E-05  9.88767326E-06
 -9.73797342E-07 -8.19621707E-06  6.80559528E-05 -4.23071612E-06 -3.76832251E-06
 -1.31156028E-05  3.19723562E-04 -9.81381233E-05 -2.60793824E-05 -6.14526017E-05
 -3.46371321E-03 -1.37445002E-03  1.44319961E-03  2.79472052E-05 -1.05371932E-04
 -4.06245188E-05 -3.73963238E-05  5.14056485E-05 -4.66352129E-05  1.43508141E-05
  2.40740323E-06  3.08667860E-06  1.01538437E-05 -5.38197607E-06  9.37675590E-06
  6.19940027E-05 -3.67213247E-05  2.87089561E-05 -3.00964175E-05 -1.37052814E-03
  2.47003539E-05  4.06308752E-04  1.58162720E-04  9.56162478E-06 -6.03636336E-06
  1.86078863E-05  3.25131661E-06 -4.97743697E-06  4.81278082E-06  7.91110930E-06
  2.71423669E-05  1.20340896E-05 -9.59320547E-06  1.10577929E-05 -2.81472053E-04
  2.22580200E-04 -7.64558280E-05 -1.96786608E-05  1.72692924E-03 -4.92783175E-04
 -9.53181141E-05  5.13012741E-04  2.31312710E-05  1.98147221E-05  9.17832765E-06
  9.50717348E-07  1.67400540E-05 -1.28649893E-05  4.41511790E-06  3.11213971E-05
 -3.72251538E-06 -4.15840295E-06  2.82791911E-06 -2.07564774E-04 -8.30569225E-05
  1.57605407E-05 -2.26771417E-05  8.96330904E-04 -1.19736601E-04 -6.86778457E-06
 -3.28867946E-04  1.26338964E-05  8.85141071E-06  1.71917588E-05  3.05739345E-06
 -3.30088547E-06 -5.57774549E-06  1.33887620E-05  5.73022165E-05  1.70921338E-05
 -1.08388366E-06  3.54190080E-06 -4.88527023E-04 -1.89960526E-04 -7.24643650E-05
 -4.63407605E-05 -1.23087787E-03 -4.73513212E-04 -1.04757980E-04  5.84874418E-05
  8.52314260E-06  2.19085648E-05  2.23096952E-05 -2.81999339E-06 -4.41948532E-06
 -4.53970806E-06  4.21045083E-06 -1.50875342E-04 -1.18704292E-06  2.98938608E-05
  1.64045430E-05 -1.23956759E-04 -7.62491984E-06 -2.52754152E-05 -3.15751220E-06
  9.53485507E-06 -9.01566689E-06  2.00094648E-04  6.06820192E-05 -3.47386499E-05
  4.69453842E-05 -2.99692166E-04 -1.42071281E-04  2.54398809E-05  6.78595126E-05
 -9.70359735E-06 -1.66500388E-05 -1.62670753E-05 -3.54618432E-07  4.54180384E-06
  2.65736175E-06 -2.27898164E-05  2.59425903E-04  2.37533563E-06  1.60353430E-04
  5.86183027E-06  4.39790584E-05  9.93251714E-01  4.90747280E-02  1.59597147E-04
  2.09034912E-04  1.01695932E-04 -1.73716665E-02  2.23566747E-03  8.53228338E-04
  1.36785093E-03 -1.51573009E-02  3.28321619E-03 -1.65161333E-04  2.44361729E-03
 -8.68733086E-03 -7.81368282E-03 -8.71980143E-03  5.39867947E-06  9.75269535E-05
  2.84382087E-04 -5.81051051E-05  4.17273473E-04  3.47947216E-05  6.59035595E-05
  3.19677968E-05 -2.03433744E-03  1.74511673E-04  8.53394226E-04  3.65476429E-04
  4.84682651E-03 -1.56877896E-03 -1.46325346E-03 -1.42183305E-03  3.19104067E-04
 -4.18464975E-05  3.26708329E-04 -1.54705563E-04 -1.00054279E-04 -2.34741114E-04
 -6.87556931E-05  2.54164049E-04  3.90752453E-05 -5.05530340E-05 -4.88258725E-06
 -6.56677725E-04  2.87807855E-05 -4.32319316E-04 -9.47768701E-06  4.60918440E-03
 -1.65310099E-03  1.52568512E-03 -6.77897477E-04  1.58346004E-04 -5.84375156E-05
  3.12101226E-04  1.92012319E-04 -8.11771290E-05  5.38854381E-06  7.32356566E-04
  1.84643533E-04 -1.11142450E-04 -1.08305218E-04  4.30334431E-07  1.40590491E-03
  2.72083197E-03  1.05191778E-03  1.24225275E-03  1.00524411E-02  5.78345984E-03
  2.94916413E-03  2.08917008E-03 -2.95741903E-04 -9.37084672E-05 -1.55189287E-04
 -6.32799633E-05 -1.52615240E-04 -4.30208328E-05 -1.33578638E-05 -3.34654909E-05
 -3.16192151E-05 -2.10644658E-05  5.33933140E-06  3.33149954E-04  5.40666310E-05
  2.39442868E-04 -1.26521286E-04 -4.86891871E-03 -2.21501095E-05  1.03746199E-03
 -7.18630031E-04 -2.85666000E-05 -6.58672930E-05 -5.96524022E-05  4.63704868E-05
  3.48226464E-06  3.26811084E-05  1.14402969E-06 -1.44236880E-04 -6.82246326E-05
 -4.26226642E-05  4.01309122E-05  3.62098916E-04 -2.96175602E-04  2.43900337E-04
  8.70880738E-05 -9.68090547E-04 -2.83913690E-04 -7.54468374E-04 -5.50161866E-04
  7.24476835E-05 -4.83755797E-05  4.17442510E-05 -2.60693021E-05  1.60089439E-05
  7.16063346E-05  8.36298903E-06  4.17093023E-05 -1.28057475E-05  3.57644811E-06
  5.84877850E-05 -4.14677658E-04 -5.86467279E-05 -1.11144302E-04 -4.33129011E-04
  3.34894408E-03  3.17869127E-03  1.60733777E-03 -1.20037836E-03 -2.39993735E-05
 -1.60408901E-05  7.94920361E-05 -2.56118301E-05 -6.39637309E-05  1.12600276E-05
 -1.92329004E-04 -1.01972939E-04 -2.79655169E-05 -7.67667896E-06 -1.05018881E-05
  4.18554467E-04 -3.57744302E-05 -1.03694566E-04  2.88715207E-04  4.48420445E-03
  1.30386351E-03  3.20540421E-04  5.12907072E-04 -3.39122870E-05 -4.92650650E-05
 -1.71545982E-05 -2.75986558E-06  2.94757370E-05  8.50108250E-06  6.70301573E-05
 -1.05918443E-03  8.54750508E-05 -2.10567858E-04  1.56382741E-05 -4.75284879E-05
 -5.29551134E-05 -1.47467008E-04 -2.60824178E-05  8.91204536E-06  1.08805164E-05
  1.24556973E-03  5.48402186E-04  1.73556845E-05 -2.25237320E-04  9.32443685E-05
  1.38861498E-04 -1.54486341E-05 -9.78348716E-06 -1.77955110E-05 -6.56777038E-05
 -6.83494697E-05  8.18398734E-06 -1.62172000E-05  8.12325236E-06 -8.58352331E-06
  4.95316088E-04 -6.92440827E-05  2.51145212E-04 -1.44188961E-05  7.24246394E-04
  1.24596374E-04 -1.90597078E-04  4.69958265E-05  2.47472775E-05 -1.32200717E-05
  8.83103468E-04 -1.96872440E-03  5.93981994E-04 -4.43408520E-04 -1.87287973E-02
  4.20118347E-03 -1.24919998E-03  1.06638108E-03 -3.21380524E-06 -8.26169803E-05
 -8.66131765E-05  4.24084318E-05  1.85541503E-05  2.73676360E-05  4.45382134E-05
  1.95375268E-04 -1.50158270E-05  1.17673297E-05 -3.33845201E-07 -1.15811013E-03
  3.49708447E-04 -1.12448824E-04  8.30690785E-05  1.93918892E-03 -6.25973549E-05
 -4.72368423E-04 -2.78285735E-04  1.10024960E-04  1.71775716E-04  8.95193543E-05
 -4.82377669E-05 -1.24956035E-05  1.98495137E-05 -4.23313045E-05 -1.91572549E-04
 -4.74411682E-06 -3.27079072E-05  9.56736985E-06  1.09762155E-03  8.95032872E-06
  4.60978360E-04 -2.71781124E-05  4.70562561E-04 -4.32859947E-04 -1.39924811E-07
 -1.38612118E-04 -1.23889138E-04 -4.34515090E-05 -1.59977543E-04 -6.48839126E-06
  1.46526978E-05 -6.04634277E-07 -6.03060710E-06 -1.14126105E-05  1.55661267E-04
 -1.31494648E-05 -2.06228911E-05 -2.00809111E-03 -7.86797301E-04 -5.38247774E-04
 -1.19053802E-03 -2.22518873E-02  6.49273024E-03  1.10594176E-02  1.83750179E-02