
Running Job 1 of 3 ts_solv_wo.qcin
qchem ts_solv_wo.qcin_47571.0 /tmp/ts_solv_wo.qcin/ 1
/programs/x86_64/lib/qchem-4.3.2/bin/mpi/mpirun_qchem -machinefile /var/spool/torque/aux//114842.vali -np 1 /programs/x86_64/lib/qchem-4.3.2/exe/qcprog.exe ts_solv_wo.qcin_47571.0 /tmp/ts_solv_wo.qcin/

Process 0 of 1 is on bt2600-16.csail.mit.edu - thread support 0
initial socket setup ...start
initial socket setup ...done 
now start server 0 ... 

cmd = ssh thor /programs/x86_64/lib/qchem-4.3.2/bin/get_hostid 1569201234 > /tmp/ts_solv_wo.qcin/lic.dat
                  Welcome to Q-Chem
     A Quantum Leap Into The Future Of Chemistry


 Q-Chem 4.3, Q-Chem, Inc., Pleasanton, CA (2015)

 Y. Shao,  Z. Gan,  E. Epifanovsky,  A. T. B. Gilbert,  M. Wormit,  
 J. Kussmann,  A. W. Lange,  A. Behn,  J. Deng,  X. Feng,  D. Ghosh,  
 M. Goldey,  P. R. Horn,  L. D. Jacobson,  I. Kaliman,  R. Z. Khaliullin,  
 T. Kus,  A. Landau,  J. Liu,  E. I. Proynov,  Y. M. Rhee,  R. M. Richard,  
 M. A. Rohrdanz,  R. P. Steele,  E. J. Sundstrom,  H. L. Woodcock III,  
 P. M. Zimmerman,  D. Zuev,  B. Albrecht,  E. Alguire,  B. Austin,  
 S. A. Baeppler,  G. J. O. Beran,  Y. A. Bernard,  E. Berquist,  
 K. Brandhorst,  K. B. Bravaya,  S. T. Brown,  D. Casanova,  C.-M. Chang,  
 Y. Chen,  S. H. Chien,  K. D. Closser,  D. L. Crittenden,  M. Diedenhofen,  
 R. A. DiStasio Jr.,  H. Do,  A. D. Dutoi,  R. G. Edgar,  P.-T. Fang,  
 S. Fatehi,  Q. Feng,  L. Fusti-Molnar,  A. Ghysels,  
 A. Golubeva-Zadorozhnaya,  J. Gomes,  A. Gunina,  M. W. D. Hanson-Heine,  
 P. H. P. Harbach,  A. W. Hauser,  E. G. Hohenstein,  Z. C. Holden,  K. Hui,  
 T.-C. Jagau,  H. Ji,  B. Kaduk,  K. Khistyaev,  Jaehoon Kim,  Jihan Kim,  
 R. A. King,  P. Klunzinger,  D. Kosenkov,  T. Kowalczyk,  C. M. Krauter,  
 K. U. Lao,  A. Laurent,  K. V. Lawler,  S. Lehtola,  S. V. Levchenko,  
 C. Y. Lin,  Y.-S. Lin,  F. Liu,  E. Livshits,  R. C. Lochan,  A. Luenser,  
 P. Manohar,  S. F. Manzer,  S.-P. Mao,  N. Mardirossian,  A. V. Marenich,  
 L. A. Martinez-Martinez,  S. A. Maurer,  N. J. Mayhall,  K. Nanda,  
 C. M. Oana,  R. Olivares-Amaya,  D. P. O'Neill,  J. A. Parkhill,  
 T. M. Perrine,  R. Peverati,  P. A. Pieniazek,  F. Plasser,  A. Prociuk,  
 D. R. Rehn,  E. Rosta,  N. J. Russ,  N. Sergueev,  S. M. Sharada,  
 S. Sharma,  D. W. Small,  A. Sodt,  T. Stauch,  T. Stein,  D. Stuck,  
 Y.-C. Su,  A. J. W. Thom,  T. Tsuchimochi,  L. Vogt,  O. Vydrov,  T. Wang,  
 M. A. Watson,  J. Wenzel,  A. White,  C. F. Williams,  V. Vanovschi,  
 S. Yeganeh,  S. R. Yost,  Z.-Q. You,  I. Y. Zhang,  X. Zhang,  Y. Zhao,  
 B. R. Brooks,  G. K. L. Chan,  D. M. Chipman,  C. J. Cramer,  
 W. A. Goddard III,  M. S. Gordon,  W. J. Hehre,  A. Klamt,  
 H. F. Schaefer III,  M. W. Schmidt,  C. D. Sherrill,  D. G. Truhlar,  
 A. Warshel,  X. Xu,  A. Aspuru-Guzik,  R. Baer,  A. T. Bell,  N. A. Besley,  
 J.-D. Chai,  A. Dreuw,  B. D. Dunietz,  T. R. Furlani,  S. R. Gwaltney,  
 C.-P. Hsu,  Y. Jung,  J. Kong,  D. S. Lambrecht,  W. Liang,  C. Ochsenfeld,  
 V. A. Rassolov,  L. V. Slipchenko,  J. E. Subotnik,  T. Van Voorhis,  
 J. M. Herbert,  A. I. Krylov,  P. M. W. Gill,  M. Head-Gordon

 Contributors to earlier versions of Q-Chem not listed above: 
 R. D. Adamson,  J. Baker,  E. F. C. Byrd,  A. K. Chakraborty,  C.-L. Cheng,  
 H. Dachsel,  R. J. Doerksen,  G. Hawkins,  A. Heyden,  S. Hirata,  
 G. Kedziora,  F. J. Keil,  C. Kelley,  P. P. Korambath,  W. Kurlancheek,  
 A. M. Lee,  M. S. Lee,  D. Liotard,  I. Lotan,  P. E. Maslen,  N. Nair,  
 D. Neuhauser,  R. Olson,  B. Peters,  J. Ritchie,  N. E. Schultz,  
 N. Shenvi,  A. C. Simmonett,  K. S. Thanthiriwatte,  Q. Wu,  W. Zhang

 Please cite Q-Chem as follows:
 Y. Shao et al., Mol. Phys. 113, 184-215 (2015)
 DOI: 10.1080/00268976.2014.952696

 Q-Chem 4.3.0 for Intel X86 Linux

 Parts of Q-Chem use Armadillo 5.200.1 (Boston Tea Smuggler).
 http://arma.sourceforge.net/

 Q-Chem begins on Mon May  8 12:50:14 2017  

Host: 
0

     Scratch files written to /tmp/ts_solv_wo.qcin//
 Oct1215 13750_ 19228  19214 4150   
 Parallel job on  1  processors
Processing $rem in /programs/x86_64/lib/qchem-4.3.2/config/preferences.
 MEM_TOTAL  2000 

Checking the input file for inconsistencies... 	...done.

--------------------------------------------------------------
User input:
--------------------------------------------------------------
$comment
Title
$end

$molecule
-2 1
C         1.886        -0.049          0.569
O         2.443         0.525         -0.394
O         2.387        -0.140          1.732
C         0.467        -0.818          0.586
O        -0.071        -0.784         -1.399
C         0.488        -1.930          1.184
O        -0.879        -0.160          0.518
C        -1.916        -0.793          0.880
H        -1.080         1.361          0.349
H        -0.817         1.766         -0.634
H        -0.496         1.911          1.102
C        -2.151         1.531          0.536
H        -0.569        -1.746         -1.515
H         0.941        -0.773         -1.812
H        -0.655        -0.006         -1.924
$end

$solvent
CavityRadius    30
Dielectric     78.39
$end

$rem
JOBTYPE FREQ
EXCHANGE b3lyp
BASIS 6-31+G(d)
GUI=2
SOLVENT_METHOD ONSAGER
$end

--------------------------------------------------------------
 ----------------------------------------------------------------
             Standard Nuclear Orientation (Angstroms)
    I     Atom           X                Y                Z
 ----------------------------------------------------------------
    1      C       1.5750426864    -0.0624824771     0.3009785893
    2      O       1.9863693348     1.0091866468     0.8004079407
    3      O       2.1925934520    -1.1690428613     0.3784780609
    4      C       0.2328656844    -0.3105144621    -0.5605619087
    5      O      -0.4966287956     1.5988931571    -0.7903995637
    6      C       0.4037747583    -1.0169127363    -1.5932189508
    7      O      -1.1631249818    -0.3162121521    -0.0123998923
    8      C      -2.1041090166    -0.8506195450    -0.6727481222
    9      H      -1.5046376535    -0.0098824553     1.4613484620
   10      H      -1.3728827822     1.0326350364     1.7700245597
   11      H      -0.8976291479    -0.6346316153     2.1335048137
   12      C      -2.5627379718    -0.2901228590     1.5744812711
   13      H      -0.9223246782     1.5594157766    -1.7924617135
   14      H       0.4660101394     2.1154548419    -0.7540085407
   15      H      -1.1912247972     2.1383225673    -0.1206852172
 ----------------------------------------------------------------
 Molecular Point Group                 C1    NOp =  1
 Largest Abelian Subgroup              C1    NOp =  1
 Nuclear Repulsion Energy =   438.0882340987 hartrees
 There are       35 alpha and       35 beta electrons
 Requested basis set is 6-31+G(d)
 There are 57 shells and 183 basis functions

 Total QAlloc Memory Limit   2000 MB
 Mega-Array Size        61 MB
 MEM_STATIC part        62 MB

                       Distance Matrix (Angstroms)
             C (  1)   O (  2)   O (  3)   C (  4)   O (  5)   C (  6)
   O (  2)  1.251836
   O (  3)  1.269587  2.228281
   C (  4)  1.614067  2.582368  2.336536
   O (  5)  2.871080  3.007275  4.032327  2.056897
   C (  6)  2.422971  3.512710  2.666572  1.262770  2.880570
   O (  7)  2.767697  3.512357  3.484387  1.499768  2.171895  2.333483
   C (  8)  3.886574  4.728750  4.434876  2.401198  2.932226  2.676640
   H (  9)  3.291452  3.696278  4.023155  2.682801  2.945269  3.739857
   H ( 10)  3.470971  3.496467  4.415474  3.132748  2.764822  4.320713
   H ( 11)  3.130433  3.577252  3.593771  2.939569  3.701169  3.965887
   C ( 12)  4.335304  4.793931  4.981576  3.517702  3.664676  4.400312
   H ( 13)  3.640040  3.935254  4.675487  2.519659  1.089451  2.904429
   H ( 14)  2.662022  2.439576  3.879632  2.444812  1.093085  3.243436
   H ( 15)  3.559997  3.495778  4.757947  2.866763  1.105425  3.829868
             O (  7)   C (  8)   H (  9)   H ( 10)   H ( 11)   C ( 12)
   C (  8)  1.267715
   H (  9)  1.543503  2.370775
   H ( 10)  2.245089  3.169933  1.095209
   H ( 11)  2.185586  3.062238  1.100257  1.771373
   C ( 12)  2.116079  2.361046  1.100414  1.789883  1.789911
   H ( 13)  2.597034  2.908375  3.659107  3.629299  4.497518  4.177087
   H ( 14)  3.019448  3.925521  3.648057  3.305264  4.214288  4.514641
   H ( 15)  2.457083  3.173627  2.686232  2.197801  3.585644  3.263738
             H ( 13)   H ( 14)
   H ( 14)  1.820725
   H ( 15)  1.789491  1.774274
 
 A cutoff of  1.0D-11 yielded   1525 shell pairs
 There are     16282 function pairs
 
 -------------------------------------------------------
 OpenMP Integral Computing Module                       
 Release: version 1.0, May 2013, Q-Chem Inc. Pittsburgh 
 -------------------------------------------------------
 Integral Job Info:
 Integral job number is                      11
 Integral operator is                         1
 short-range coefficients                     0
 long-range coefficients              100000000
 Omega coefficients                           0
 if combine SR and LR in K                    0
 Integral screening is                        0
 Integral computing path is                   2
 max size of driver memory is            800000
 size of driver memory is                593474
 size of scratch memory is              2260544
 max col of scratch BK array               1296
 max len of scratch array in speh3          155
 max len of scratch index in speh4           18
 max int batch size is                      520
 min int batch size is                       52
 fixed nKL is                                52
 max L of basis functions is                  2
 order of int derivative is                   0
 number of shells is                         57
 number of basis is                         183
 number of cartesian basis is               183
 number of contracted shell pairs          1525
 number of primitive shell pairs           5216
 maxK2 (contraction) of shell pair           36
 max number of K2 of shell pair               1
 max number of CS2 of shell pair            182
 max number of PS2 of shell pair           1092
 mem total for path MDJ                   43170
 -------------------------------------------------------
 Smallest overlap matrix eigenvalue = 1.76E-05
 Placing solute cavity origin at the center of mass
 Center of Onsager solute cavity (Angst): (   0.041279,  -0.047363,  -0.020600)
 Solvent multipole matrices computed through 15th order
 Guess from superposition of atomic densities
 Warning:  Energy on first SCF cycle will be non-variational
 A restricted hybrid HF-DFT SCF calculation will be
 performed using Pulay DIIS extrapolation
 Kirkwood-Onsager solvation model will be applied
 Exchange:     0.2000 Hartree-Fock + 0.0800 Slater + 0.7200 B88
 Correlation:  0.1900 VWN1RPA + 0.8100 LYP
 Using SG-1 standard quadrature grid
 SCF converges when DIIS error is below 1.0E-08
 Kirkwood-Onsager SCRF: 
 Maximum multipole order     = 15
 Solvent dielectric constant = 78.3900
 Cavity radius               = 56.6917 bohr
 Born term (E_born)          = -0.03482849 a.u. = -21.8552 kcal/mol
 CPU 0.00 s  wall 0.00 s
 Inaccurate integrated density:
   Number of electrons =    70
   Numerical integral  =    68.000031551423
   Relative error      =    -2.8570977837 %
 CPU 4.89 s  wall 4.89 s
 ---------------------------------------
  Cycle       Energy         DIIS Error
 ---------------------------------------
    1    -495.5733879249      4.63E-02
 CPU 0.00 s  wall 0.00 s
 CPU 5.26 s  wall 5.26 s
    2    -493.3747742812      1.16E-02
 CPU 0.00 s  wall 0.00 s
 CPU 5.27 s  wall 5.27 s
    3    -480.3430023833      3.93E-02
 CPU 0.00 s  wall 0.00 s
 CPU 5.26 s  wall 5.26 s
    4    -493.1973430265      1.34E-02
 CPU 0.00 s  wall 0.00 s
 CPU 5.26 s  wall 5.26 s
    5    -493.7952293045      8.01E-03
 CPU 0.00 s  wall 0.00 s
 CPU 5.25 s  wall 5.25 s
    6    -493.8096626308      7.07E-03
 CPU 0.00 s  wall 0.00 s
 CPU 5.22 s  wall 5.22 s
    7    -494.1146324363      3.02E-03
 CPU 0.00 s  wall 0.00 s
 CPU 5.26 s  wall 5.26 s
    8    -494.0786250324      3.75E-03
 CPU 0.00 s  wall 0.00 s
 CPU 5.23 s  wall 5.23 s
    9    -494.1503499774      2.23E-03
 CPU 0.00 s  wall 0.00 s
 CPU 5.20 s  wall 5.20 s
   10    -494.1783333821      5.11E-04
 CPU 0.00 s  wall 0.00 s
 CPU 5.19 s  wall 5.19 s
   11    -494.1797963990      2.95E-04
 CPU 0.00 s  wall 0.00 s
 CPU 5.11 s  wall 5.11 s
   12    -494.1801840596      1.07E-04
 CPU 0.00 s  wall 0.00 s
 CPU 5.07 s  wall 5.07 s
   13    -494.1802457129      5.29E-05
 CPU 0.00 s  wall 0.00 s
 CPU 5.05 s  wall 5.05 s
   14    -494.1802624646      4.94E-05
 CPU 0.00 s  wall 0.00 s
 CPU 5.06 s  wall 5.06 s
   15    -494.1802774641      3.72E-05
 CPU 0.00 s  wall 0.00 s
 CPU 5.07 s  wall 5.07 s
   16    -494.1802900286      2.87E-05
 CPU 0.00 s  wall 0.00 s
 CPU 5.00 s  wall 5.00 s
   17    -494.1802955385      1.70E-05
 CPU 0.00 s  wall 0.00 s
 CPU 5.00 s  wall 5.00 s
   18    -494.1802975576      1.07E-05
 CPU 0.00 s  wall 0.00 s
 CPU 4.99 s  wall 4.99 s
   19    -494.1802987927      4.03E-06
 CPU 0.00 s  wall 0.00 s
 CPU 4.96 s  wall 4.96 s
   20    -494.1802990167      1.99E-06
 CPU 0.00 s  wall 0.00 s
 CPU 4.90 s  wall 4.90 s
   21    -494.1802990706      4.39E-07
 CPU 0.00 s  wall 0.00 s
 CPU 4.76 s  wall 4.76 s
   22    -494.1802990739      4.52E-07
 CPU 0.00 s  wall 0.00 s
 CPU 4.81 s  wall 4.81 s
   23    -494.1802990810      3.16E-07
 CPU 0.00 s  wall 0.00 s
 CPU 4.79 s  wall 4.79 s
   24    -494.1802990817      1.23E-07
 CPU 0.00 s  wall 0.00 s
 CPU 4.69 s  wall 4.69 s
   25    -494.1802990815      7.52E-08
 CPU 0.00 s  wall 0.00 s
 CPU 4.60 s  wall 4.60 s
   26    -494.1802990811      1.95E-08
 CPU 0.00 s  wall 0.00 s
 CPU 4.40 s  wall 4.40 s
   27    -494.1802990800      8.18E-09 Convergence criterion met
 ---------------------------------------
 SCF time:  CPU 321.41 s  wall 319.82 s
 SCF   energy in the final basis set = -494.1802990800
 Total energy in the final basis set = -494.1802990800
 
 --------------------------------------------------------------
 
                    Orbital Energies (a.u.)
 --------------------------------------------------------------
 
 Alpha MOs
 -- Occupied --
-19.043 -19.003 -18.846 -18.819 -10.024 -10.017  -9.943  -9.942
 -9.918  -0.889  -0.856  -0.759  -0.666  -0.514  -0.413  -0.385
 -0.360  -0.340  -0.276  -0.253  -0.198  -0.173  -0.156  -0.132
 -0.120  -0.098  -0.061  -0.022   0.000   0.013   0.021   0.043
  0.057   0.105   0.125
 -- Virtual --
  0.166   0.178   0.187   0.245   0.247   0.249   0.261   0.262
  0.268   0.279   0.284   0.293   0.299   0.313   0.317   0.327
  0.331   0.336   0.338   0.342   0.354   0.370   0.375   0.385
  0.394   0.414   0.419   0.423   0.445   0.453   0.469   0.476
  0.488   0.505   0.519   0.538   0.551   0.559   0.565   0.576
  0.580   0.588   0.594   0.607   0.623   0.649   0.655   0.701
  0.721   0.746   0.764   0.802   0.937   0.951   0.971   0.996
  1.009   1.014   1.039   1.044   1.051   1.060   1.080   1.111
  1.137   1.146   1.172   1.196   1.215   1.224   1.259   1.279
  1.293   1.356   1.389   1.399   1.431   1.442   1.480   1.494
  1.529   1.554   1.569   1.582   1.605   1.618   1.628   1.635
  1.667   1.695   1.714   1.766   1.794   1.799   1.815   1.861
  1.892   1.941   1.964   1.980   1.988   2.018   2.034   2.047
  2.078   2.090   2.126   2.139   2.148   2.163   2.181   2.208
  2.259   2.269   2.295   2.337   2.391   2.401   2.457   2.506
  2.547   2.593   2.608   2.632   2.648   2.690   2.700   2.710
  2.769   2.867   2.965   2.983   3.053   3.132   3.205   3.314
  3.352   3.400   3.453   4.323   4.442   4.470   4.557   4.590
  4.644   4.701   4.751   4.963
 --------------------------------------------------------------
 
          Ground-State Mulliken Net Atomic Charges

     Atom                 Charge (a.u.)
  ----------------------------------------
      1 C                     0.267591
      2 O                    -0.465606
      3 O                    -0.559111
      4 C                    -1.535512
      5 O                    -0.225395
      6 C                    -0.523187
      7 O                     0.397117
      8 C                    -0.098950
      9 H                    -0.004919
     10 H                     0.046561
     11 H                     0.017543
     12 C                    -0.524752
     13 H                     0.386838
     14 H                     0.429911
     15 H                     0.391870
  ----------------------------------------
  Sum of atomic charges =    -2.000000

 -----------------------------------------------------------------
                    Cartesian Multipole Moments
 -----------------------------------------------------------------
    Charge (ESU x 10^10)
                -9.6064
    Dipole Moment (Debye)
         X       2.3653      Y       3.8807      Z      -6.7299
       Tot       8.1207
    Quadrupole Moments (Debye-Ang)
        XX    -121.4561     XY       1.2152     YY     -81.8019
        XZ      11.8466     YZ      -8.6176     ZZ     -99.7358
    Octopole Moments (Debye-Ang^2)
       XXX     107.3874    XXY      10.8650    XYY      14.5619
       YYY      -1.9259    XXZ     -67.3003    XYZ      -2.8848
       YYZ      -9.7919    XZZ      57.2477    YZZ      13.1370
       ZZZ     -42.2275
    Hexadecapole Moments (Debye-Ang^3)
      XXXX   -1642.8534   XXXY      -8.1782   XXYY    -346.8714
      XYYY      19.1266   YYYY    -538.3265   XXXZ     172.6020
      XXYZ     -10.6055   XYYZ      21.5424   YYYZ     -30.4510
      XXZZ    -448.9487   XYZZ      -9.9173   YYZZ    -229.8379
      XZZZ     176.5863   YZZZ     -34.7769   ZZZZ    -795.6766
 -----------------------------------------------------------------
 Calculating MO derivatives via CPSCF
 CPU 0.00 s  wall 0.00 s
 CPU 202.58 s  wall 202.58 s
 CPU 0.00 s  wall 0.00 s
 CPU 166.62 s  wall 166.62 s
 CPU 0.00 s  wall 0.00 s
 CPU 202.22 s  wall 202.22 s
   1         3          45      0.780381    0.174536
 CPU 0.00 s  wall 0.00 s
 CPU 203.77 s  wall 203.76 s
   2         3          45      0.105411    0.025433
 CPU 0.00 s  wall 0.00 s
 CPU 203.82 s  wall 203.80 s
   3         3          45      0.016095    0.004718
 CPU 0.00 s  wall 0.00 s
 CPU 203.34 s  wall 203.34 s
   4         3          45      0.001237    0.000322
 CPU 0.00 s  wall 0.00 s
 CPU 202.98 s  wall 202.99 s
   5        37          11      0.000060    0.000019
 CPU 0.00 s  wall 0.00 s
 CPU 52.41 s  wall 52.41 s
   6        48           0      0.000000    0.000000    Roots Converged
 CPU 0.00 s  wall 0.00 s
 CPU 213.38 s  wall 213.38 s
 Calculating analytic Hessian of the SCF energy
 Polarizability Matrix (a.u.)
            1           2           3
    1-246.8388346 -11.8007660  44.2966805
    2 -11.8007660-210.2699961  28.3605707
    3  44.2966805  28.3605707-267.6582042
 CPU 0.00 s  wall 0.00 s
 CPU 228.63 s  wall 228.63 s
 
 Direct stationary perturbation theory relativistic correction:
 
 rels  =       0.159949711660
 relv  =      -0.762088953275
 rel2e =       0.329126332421
 E_rel =      -0.273012909194
 
 Hessian of the SCF Energy
            1           2           3           4           5           6
    1   0.3052575  -0.0199467   0.0650409  -0.1208423  -0.1162580  -0.0624476
    2  -0.0199467   0.7959270   0.1341184  -0.1274922  -0.3829480  -0.1574876
    3   0.0650409   0.1341184   0.2818058  -0.0628560  -0.1427798  -0.1440927
    4  -0.1208423  -0.1274922  -0.0628560   0.1133116   0.1295605   0.0815423
    5  -0.1162580  -0.3829480  -0.1427798   0.1295605   0.5069492   0.2002691
    6  -0.0624476  -0.1574876  -0.1440927   0.0815423   0.2002691   0.1233024
    7  -0.1687754   0.1642374  -0.0121654   0.0309585   0.0073414   0.0019286
    8   0.1441204  -0.3483889   0.0173127   0.0217233  -0.1230415  -0.0231504
    9  -0.0266845   0.0383510  -0.0800969   0.0069538  -0.0396403   0.0248736
   10   0.0066687   0.0030824   0.0150579  -0.0296185  -0.0353316  -0.0257920
   11   0.0048380  -0.0727735   0.0026618  -0.0247660  -0.0037317  -0.0200578
   12   0.0414485  -0.0340673  -0.0612935  -0.0265415  -0.0081150  -0.0056039
   13  -0.0056035   0.0044572  -0.0014083  -0.0014552   0.0008384  -0.0022303
   14   0.0043319   0.0012483  -0.0028146  -0.0023137  -0.0029932  -0.0001457
   15  -0.0055532  -0.0008117  -0.0034926  -0.0023877   0.0046780  -0.0017460
   16  -0.0009713  -0.0069375  -0.0099314  -0.0007869   0.0034009   0.0017047
   17  -0.0108815   0.0223254  -0.0137109   0.0005661  -0.0081526   0.0025630
   18  -0.0093577  -0.0038047  -0.0134672  -0.0007365   0.0010169   0.0020037
   19  -0.0396991  -0.0345282  -0.0092346   0.0153427   0.0297989   0.0044186
   20  -0.0053247  -0.0045747   0.0109119   0.0055576   0.0067065   0.0002438
   21   0.0004712   0.0015255   0.0308855   0.0027889  -0.0058950  -0.0060725
   22  -0.0016651   0.0058922   0.0039483  -0.0005857  -0.0020873   0.0005153
   23  -0.0019011   0.0055036  -0.0065606  -0.0015663  -0.0012406   0.0010273
   24  -0.0037669   0.0046528  -0.0158749  -0.0020116   0.0024615   0.0035360
   25   0.0050611  -0.0101119   0.0044562   0.0010473   0.0036825  -0.0044140
   26  -0.0000721  -0.0011707  -0.0006218   0.0004826   0.0015248  -0.0009456
   27   0.0012202  -0.0006820  -0.0007586  -0.0001226   0.0007705  -0.0004520
   28   0.0022382  -0.0000908   0.0006230  -0.0016419  -0.0012497   0.0014456
   29   0.0013185   0.0002556  -0.0000886  -0.0009797  -0.0008405   0.0013949
   30   0.0025535   0.0031700   0.0015736  -0.0005733  -0.0035732  -0.0003247
   31   0.0005731   0.0051877  -0.0021111  -0.0002237  -0.0039500   0.0017332
   32   0.0026300  -0.0005598   0.0019117  -0.0009242  -0.0013451  -0.0003387
   33   0.0011350   0.0036347   0.0003201  -0.0006300  -0.0029860   0.0006105
   34   0.0102290   0.0090427   0.0034768  -0.0048007  -0.0089471  -0.0017883
   35   0.0003509   0.0036915   0.0001636  -0.0006085  -0.0026694  -0.0003620
   36  -0.0134090  -0.0015559  -0.0040878   0.0032672   0.0065713   0.0020494
   37   0.0021228   0.0003346   0.0005130  -0.0002483  -0.0017130   0.0007335
   38   0.0007023  -0.0002871   0.0018451   0.0001275   0.0003198  -0.0002680
   39   0.0058078   0.0046654   0.0037039   0.0009266  -0.0058626   0.0009881
   40   0.0047143   0.0048240   0.0042640  -0.0001517  -0.0031321   0.0020765
   41  -0.0025080  -0.0150359  -0.0014851   0.0001620   0.0088131  -0.0027436
   42   0.0042061   0.0104566   0.0049768   0.0005790  -0.0086120   0.0008354
   43   0.0006921   0.0020490   0.0003269  -0.0003052  -0.0019539   0.0005738
   44  -0.0013998  -0.0032127  -0.0008640   0.0004711   0.0026493   0.0000012
   45  -0.0006644  -0.0021652  -0.0001016  -0.0001986   0.0016965   0.0000927
            7           8           9          10          11          12
    1  -0.1687754   0.1441204  -0.0266845   0.0066687   0.0048380   0.0414485
    2   0.1642374  -0.3483889   0.0383510   0.0030824  -0.0727735  -0.0340673
    3  -0.0121654   0.0173127  -0.0800969   0.0150579   0.0026618  -0.0612935
    4   0.0309585   0.0217233   0.0069538  -0.0296185  -0.0247660  -0.0265415
    5   0.0073414  -0.1230415  -0.0396403  -0.0353316  -0.0037317  -0.0081150
    6   0.0019286  -0.0231504   0.0248736  -0.0257920  -0.0200578  -0.0056039
    7   0.1941592  -0.2022689   0.0502932  -0.0540535   0.0297720  -0.0324444
    8  -0.2022689   0.4679283  -0.0115116   0.0301790   0.0043359   0.0243156
    9   0.0502932  -0.0115116   0.0506108  -0.0362966   0.0160752   0.0217906
   10  -0.0540535   0.0301790  -0.0362966   0.0214434  -0.0622546  -0.0077765
   11   0.0297720   0.0043359   0.0160752  -0.0622546   0.3502592   0.3671621
   12  -0.0324444   0.0243156   0.0217906  -0.0077765   0.3671621   0.5545945
   13   0.0002762   0.0005098   0.0005236  -0.0024812   0.0155684  -0.0067749
   14  -0.0013109  -0.0013670  -0.0007247   0.0158854  -0.0188676   0.0059516
   15  -0.0002636   0.0022846   0.0003618  -0.0022861   0.0050124  -0.0010111
   16  -0.0082748   0.0045500  -0.0048645   0.0160759   0.0545319   0.0857366
   17   0.0030213  -0.0067164  -0.0050606   0.0181628  -0.2220474  -0.3339268
   18  -0.0049607  -0.0035479  -0.0057575   0.0579362  -0.3551560  -0.5154766
   19   0.0110503   0.0010163   0.0192256   0.2384790  -0.0165558  -0.1138731
   20   0.0013347   0.0010102   0.0046748   0.1021944  -0.0147130  -0.0810854
   21  -0.0009853  -0.0013819  -0.0090989   0.0809420  -0.0328776  -0.0759706
   22  -0.0019664   0.0033018  -0.0052277  -0.1440061  -0.0056668   0.0472393
   23  -0.0013529   0.0002451  -0.0023812  -0.0680315   0.0047061   0.0512852
   24  -0.0013538   0.0007480   0.0001559  -0.0652155   0.0163852   0.0698579
   25   0.0004937   0.0016966   0.0010330   0.0284230  -0.0109771  -0.0228740
   26  -0.0004035  -0.0002951  -0.0000367   0.0055955   0.0014447   0.0015542
   27  -0.0002866   0.0001251  -0.0006781   0.0010576   0.0024576   0.0050110
   28  -0.0001247  -0.0000316  -0.0005692  -0.0087800  -0.0034217   0.0057734
   29  -0.0003277   0.0001798  -0.0007495  -0.0085840  -0.0024538   0.0057811
   30  -0.0000148  -0.0010757  -0.0006024  -0.0134372   0.0014865   0.0012880
   31   0.0000153  -0.0030161   0.0017071  -0.0040536   0.0030813   0.0006716
   32  -0.0001821   0.0007068  -0.0008281  -0.0053674  -0.0014402   0.0005568
   33   0.0001577  -0.0014390  -0.0002072  -0.0094737  -0.0001889   0.0034711
   34  -0.0034306   0.0002008  -0.0046223  -0.0643544   0.0134681   0.0298801
   35  -0.0003687  -0.0006602  -0.0007094  -0.0144058   0.0133814  -0.0012554
   36   0.0013677   0.0022338   0.0012093   0.0136292   0.0007535  -0.0041748
   37  -0.0000060  -0.0001261  -0.0001667  -0.0094054  -0.0003106   0.0048599
   38  -0.0001386   0.0003306   0.0001144   0.0059501  -0.0095557   0.0007596
   39  -0.0007728  -0.0020146  -0.0010674  -0.0098890   0.0075005   0.0033895
   40  -0.0002457  -0.0010193  -0.0006353   0.0115924  -0.0082854  -0.0059484
   41   0.0004006   0.0042462   0.0019988   0.0115611  -0.0124343  -0.0032726
   42  -0.0006151  -0.0037426  -0.0018622  -0.0027295   0.0010374   0.0003901
   43  -0.0000760  -0.0008360  -0.0006696  -0.0059297   0.0109784   0.0006236
   44   0.0002459   0.0014861   0.0004278   0.0013642  -0.0161103   0.0043562
   45   0.0001152   0.0008437   0.0003685   0.0042731  -0.0122520   0.0037377
           13          14          15          16          17          18
    1  -0.0056035   0.0043319  -0.0055532  -0.0009713  -0.0108815  -0.0093577
    2   0.0044572   0.0012483  -0.0008117  -0.0069375   0.0223254  -0.0038047
    3  -0.0014083  -0.0028146  -0.0034926  -0.0099314  -0.0137109  -0.0134672
    4  -0.0014552  -0.0023137  -0.0023877  -0.0007869   0.0005661  -0.0007365
    5   0.0008384  -0.0029932   0.0046780   0.0034009  -0.0081526   0.0010169
    6  -0.0022303  -0.0001457  -0.0017460   0.0017047   0.0025630   0.0020037
    7   0.0002762  -0.0013109  -0.0002636  -0.0082748   0.0030213  -0.0049607
    8   0.0005098  -0.0013670   0.0022846   0.0045500  -0.0067164  -0.0035479
    9   0.0005236  -0.0007247   0.0003618  -0.0048645  -0.0050606  -0.0057575
   10  -0.0024812   0.0158854  -0.0022861   0.0160759   0.0181628   0.0579362
   11   0.0155684  -0.0188676   0.0050124   0.0545319  -0.2220474  -0.3551560
   12  -0.0067749   0.0059516  -0.0010111   0.0857366  -0.3339268  -0.5154766
   13   0.2624393   0.0468618  -0.0028332  -0.0040039   0.0029611   0.0002600
   14   0.0468618   0.2138464  -0.0132364   0.0021076  -0.0165091  -0.0011832
   15  -0.0028332  -0.0132364   0.1846040   0.0011039  -0.0093125  -0.0010235
   16  -0.0040039   0.0021076   0.0011039   0.0180642  -0.0611701  -0.0918985
   17   0.0029611  -0.0165091  -0.0093125  -0.0611701   0.2149432   0.3691442
   18   0.0002600  -0.0011832  -0.0010235  -0.0918985   0.3691442   0.5467686
   19  -0.0059508  -0.0403704   0.0138701  -0.0282913   0.0655618   0.0539224
   20  -0.0277068  -0.0620981   0.0259530   0.0089229   0.0149436   0.0136585
   21   0.0340671   0.0137913   0.0292889   0.0484821   0.0250178   0.0124650
   22  -0.0083876   0.0173386  -0.0150162  -0.0179700  -0.0219488  -0.0145073
   23  -0.0093780   0.0046674  -0.0047770  -0.0094356  -0.0096662  -0.0183539
   24  -0.0080807   0.0071526  -0.0122884  -0.0136169  -0.0258035  -0.0220271
   25   0.0112314  -0.0005430   0.0026225   0.0195969   0.0217417   0.0089001
   26   0.0004081  -0.0010101   0.0057555   0.0007024   0.0018024  -0.0018079
   27   0.0027174  -0.0040140  -0.0000970  -0.0030107  -0.0008044  -0.0020342
   28   0.0070916   0.0019941   0.0099034   0.0005438   0.0006520   0.0006837
   29   0.0032712   0.0024404   0.0124043  -0.0002473  -0.0005065  -0.0002901
   30   0.0062173   0.0009791  -0.0087501   0.0041253  -0.0013503   0.0018940
   31   0.0008225  -0.0037604   0.0047157  -0.0003455  -0.0028017   0.0017695
   32   0.0035272   0.0001741  -0.0003176   0.0022675   0.0011674   0.0011045
   33  -0.0000076   0.0020212   0.0049981   0.0003863  -0.0028187   0.0007920
   34  -0.0061275   0.0014832  -0.0054440   0.0025950  -0.0171506  -0.0043732
   35  -0.0066040  -0.0025320  -0.0126650   0.0008225  -0.0072090   0.0001339
   36  -0.0157875   0.0036355  -0.0181277  -0.0176381  -0.0079622  -0.0065319
   37  -0.0726861   0.0077258   0.0026345   0.0001049   0.0002438   0.0013457
   38  -0.0003015  -0.0180074   0.0171699  -0.0005627   0.0064984  -0.0004942
   39  -0.0228398   0.0174744  -0.0821689   0.0015294   0.0012183   0.0027900
   40  -0.1027232  -0.0539256   0.0150912   0.0023701   0.0059450   0.0011602
   41  -0.0531866  -0.0609093  -0.0089447   0.0017967   0.0056150   0.0008242
   42   0.0175775  -0.0119911  -0.0696268   0.0003400  -0.0013956  -0.0000812
   43  -0.0724420   0.0044957  -0.0161572   0.0012928  -0.0049028  -0.0001438
   44   0.0187737  -0.0380828  -0.0231928  -0.0007491   0.0035116  -0.0012444
   45  -0.0014005  -0.0168960  -0.0209205  -0.0024481   0.0042020  -0.0003139
           19          20          21          22          23          24
    1  -0.0396991  -0.0053247   0.0004712  -0.0016651  -0.0019011  -0.0037669
    2  -0.0345282  -0.0045747   0.0015255   0.0058922   0.0055036   0.0046528
    3  -0.0092346   0.0109119   0.0308855   0.0039483  -0.0065606  -0.0158749
    4   0.0153427   0.0055576   0.0027889  -0.0005857  -0.0015663  -0.0020116
    5   0.0297989   0.0067065  -0.0058950  -0.0020873  -0.0012406   0.0024615
    6   0.0044186   0.0002438  -0.0060725   0.0005153   0.0010273   0.0035360
    7   0.0110503   0.0013347  -0.0009853  -0.0019664  -0.0013529  -0.0013538
    8   0.0010163   0.0010102  -0.0013819   0.0033018   0.0002451   0.0007480
    9   0.0192256   0.0046748  -0.0090989  -0.0052277  -0.0023812   0.0001559
   10   0.2384790   0.1021944   0.0809420  -0.1440061  -0.0680315  -0.0652155
   11  -0.0165558  -0.0147130  -0.0328776  -0.0056668   0.0047061   0.0163852
   12  -0.1138731  -0.0810854  -0.0759706   0.0472393   0.0512852   0.0698579
   13  -0.0059508  -0.0277068   0.0340671  -0.0083876  -0.0093780  -0.0080807
   14  -0.0403704  -0.0620981   0.0137913   0.0173386   0.0046674   0.0071526
   15   0.0138701   0.0259530   0.0292889  -0.0150162  -0.0047770  -0.0122884
   16  -0.0282913   0.0089229   0.0484821  -0.0179700  -0.0094356  -0.0136169
   17   0.0655618   0.0149436   0.0250178  -0.0219488  -0.0096662  -0.0258035
   18   0.0539224   0.0136585   0.0124650  -0.0145073  -0.0183539  -0.0220271
   19  -0.1197437   0.0114707  -0.0195483  -0.0927058  -0.0500605  -0.0770225
   20   0.0114707   0.1015477   0.0805316  -0.0923755  -0.0559055  -0.0592196
   21  -0.0195483   0.0805316   0.1678728  -0.1185281  -0.0522238  -0.0559606
   22  -0.0927058  -0.0923755  -0.1185281   0.2558457   0.1120504   0.1275088
   23  -0.0500605  -0.0559055  -0.0522238   0.1120504   0.0660958   0.0499864
   24  -0.0770225  -0.0592196  -0.0559606   0.1275088   0.0499864   0.0454933
   25  -0.0704525  -0.0203327  -0.0466625   0.0351131   0.0296892   0.0561787
   26  -0.0175014   0.0102843  -0.0166736   0.0097583  -0.0022275  -0.0061431
   27   0.0142235  -0.0105830  -0.0473261   0.0029842  -0.0110814  -0.0289497
   28   0.0222521   0.0030095  -0.0079563  -0.0024929   0.0068374  -0.0043138
   29   0.0198278  -0.0020928  -0.0083176  -0.0016887   0.0033992  -0.0062028
   30   0.0269257  -0.0116341  -0.0182668  -0.0081865   0.0020705   0.0131554
   31   0.0075364   0.0015673   0.0067386   0.0000685  -0.0079227  -0.0111960
   32   0.0130157  -0.0030865  -0.0125252  -0.0027147   0.0088695   0.0103187
   33   0.0148010   0.0085941  -0.0147687  -0.0062284   0.0022266  -0.0008121
   34   0.0570429   0.0109264   0.0486633  -0.0324721  -0.0084784  -0.0086973
   35   0.0240784   0.0040313   0.0130431  -0.0119877  -0.0162725   0.0071719
   36   0.0643911   0.0203007   0.0205302  -0.0305044  -0.0185667  -0.0076629
   37   0.0137296   0.0004452  -0.0184553   0.0068624   0.0023772   0.0067408
   38  -0.0011136  -0.0002435  -0.0082298  -0.0002364  -0.0000587   0.0061797
   39   0.0018493  -0.0093286  -0.0384079   0.0183598   0.0107326   0.0227911
   40  -0.0145669   0.0032149  -0.0086493   0.0016115   0.0018335   0.0022127
   41  -0.0159243  -0.0024735  -0.0012137  -0.0002657   0.0010800   0.0009540
   42   0.0045048   0.0025303   0.0020578  -0.0015419  -0.0001789  -0.0015321
   43   0.0059769  -0.0029039  -0.0013682   0.0027504   0.0053394   0.0026340
   44   0.0112847   0.0066640   0.0054288  -0.0093697  -0.0091957  -0.0086420
   45   0.0015462   0.0044518   0.0027718  -0.0008152  -0.0032050  -0.0098818
           25          26          27          28          29          30
    1   0.0050611  -0.0000721   0.0012202   0.0022382   0.0013185   0.0025535
    2  -0.0101119  -0.0011707  -0.0006820  -0.0000908   0.0002556   0.0031700
    3   0.0044562  -0.0006218  -0.0007586   0.0006230  -0.0000886   0.0015736
    4   0.0010473   0.0004826  -0.0001226  -0.0016419  -0.0009797  -0.0005733
    5   0.0036825   0.0015248   0.0007705  -0.0012497  -0.0008405  -0.0035732
    6  -0.0044140  -0.0009456  -0.0004520   0.0014456   0.0013949  -0.0003247
    7   0.0004937  -0.0004035  -0.0002866  -0.0001247  -0.0003277  -0.0000148
    8   0.0016966  -0.0002951   0.0001251  -0.0000316   0.0001798  -0.0010757
    9   0.0010330  -0.0000367  -0.0006781  -0.0005692  -0.0007495  -0.0006024
   10   0.0284230   0.0055955   0.0010576  -0.0087800  -0.0085840  -0.0134372
   11  -0.0109771   0.0014447   0.0024576  -0.0034217  -0.0024538   0.0014865
   12  -0.0228740   0.0015542   0.0050110   0.0057734   0.0057811   0.0012880
   13   0.0112314   0.0004081   0.0027174   0.0070916   0.0032712   0.0062173
   14  -0.0005430  -0.0010101  -0.0040140   0.0019941   0.0024404   0.0009791
   15   0.0026225   0.0057555  -0.0000970   0.0099034   0.0124043  -0.0087501
   16   0.0195969   0.0007024  -0.0030107   0.0005438  -0.0002473   0.0041253
   17   0.0217417   0.0018024  -0.0008044   0.0006520  -0.0005065  -0.0013503
   18   0.0089001  -0.0018079  -0.0020342   0.0006837  -0.0002901   0.0018940
   19  -0.0704525  -0.0175014   0.0142235   0.0222521   0.0198278   0.0269257
   20  -0.0203327   0.0102843  -0.0105830   0.0030095  -0.0020928  -0.0116341
   21  -0.0466625  -0.0166736  -0.0473261  -0.0079563  -0.0083176  -0.0182668
   22   0.0351131   0.0097583   0.0029842  -0.0024929  -0.0016887  -0.0081865
   23   0.0296892  -0.0022275  -0.0110814   0.0068374   0.0033992   0.0020705
   24   0.0561787  -0.0061431  -0.0289497  -0.0043138  -0.0062028   0.0131554
   25   0.1533044   0.0438279  -0.0841152   0.0250619   0.0233205   0.0166263
   26   0.0438279  -0.0049698  -0.0042943  -0.0246019  -0.0330583  -0.0043162
   27  -0.0841152  -0.0042943   0.0365374   0.0005151  -0.0170964   0.0120992
   28   0.0250619  -0.0246019   0.0005151  -0.0412405  -0.0209250  -0.0080866
   29   0.0233205  -0.0330583  -0.0170964  -0.0209250   0.0352547   0.0146384
   30   0.0166263  -0.0043162   0.0120992  -0.0080866   0.0146384   0.0019179
   31   0.0055727   0.0377689  -0.0291570   0.0021357   0.0110046   0.0004338
   32   0.0031830  -0.0011919   0.0186913   0.0023250  -0.0150596   0.0004943
   33   0.0115414   0.0246711  -0.0045290  -0.0026992   0.0055082  -0.0012438
   34  -0.2052575  -0.0562304   0.0957887   0.0077091  -0.0195115  -0.0207057
   35  -0.0695728   0.0356253   0.0242778   0.0327614   0.0087632  -0.0004085
   36   0.0524228   0.0073220   0.0311257   0.0200246   0.0145991  -0.0096048
   37   0.0007034  -0.0006204   0.0005496  -0.0084236  -0.0078369  -0.0003468
   38  -0.0048770  -0.0004354   0.0013797  -0.0027684  -0.0016563  -0.0010868
   39  -0.0036299  -0.0009562   0.0001930  -0.0083727  -0.0085967  -0.0037787
   40  -0.0109416  -0.0024546  -0.0012415   0.0019516   0.0030400   0.0005917
   41  -0.0067164  -0.0011414   0.0000704   0.0012807   0.0019153   0.0005996
   42   0.0019407   0.0005356  -0.0001188  -0.0007705  -0.0005100  -0.0011648
   43   0.0010426   0.0033406  -0.0011227  -0.0062803  -0.0016817  -0.0061227
   44  -0.0040105  -0.0051814   0.0007832   0.0042291   0.0034596   0.0000063
   45   0.0059740  -0.0040429  -0.0000228  -0.0062004  -0.0124742   0.0118079
           31          32          33          34          35          36
    1   0.0005731   0.0026300   0.0011350   0.0102290   0.0003509  -0.0134090
    2   0.0051877  -0.0005598   0.0036347   0.0090427   0.0036915  -0.0015559
    3  -0.0021111   0.0019117   0.0003201   0.0034768   0.0001636  -0.0040878
    4  -0.0002237  -0.0009242  -0.0006300  -0.0048007  -0.0006085   0.0032672
    5  -0.0039500  -0.0013451  -0.0029860  -0.0089471  -0.0026694   0.0065713
    6   0.0017332  -0.0003387   0.0006105  -0.0017883  -0.0003620   0.0020494
    7   0.0000153  -0.0001821   0.0001577  -0.0034306  -0.0003687   0.0013677
    8  -0.0030161   0.0007068  -0.0014390   0.0002008  -0.0006602   0.0022338
    9   0.0017071  -0.0008281  -0.0002072  -0.0046223  -0.0007094   0.0012093
   10  -0.0040536  -0.0053674  -0.0094737  -0.0643544  -0.0144058   0.0136292
   11   0.0030813  -0.0014402  -0.0001889   0.0134681   0.0133814   0.0007535
   12   0.0006716   0.0005568   0.0034711   0.0298801  -0.0012554  -0.0041748
   13   0.0008225   0.0035272  -0.0000076  -0.0061275  -0.0066040  -0.0157875
   14  -0.0037604   0.0001741   0.0020212   0.0014832  -0.0025320   0.0036355
   15   0.0047157  -0.0003176   0.0049981  -0.0054440  -0.0126650  -0.0181277
   16  -0.0003455   0.0022675   0.0003863   0.0025950   0.0008225  -0.0176381
   17  -0.0028017   0.0011674  -0.0028187  -0.0171506  -0.0072090  -0.0079622
   18   0.0017695   0.0011045   0.0007920  -0.0043732   0.0001339  -0.0065319
   19   0.0075364   0.0130157   0.0148010   0.0570429   0.0240784   0.0643911
   20   0.0015673  -0.0030865   0.0085941   0.0109264   0.0040313   0.0203007
   21   0.0067386  -0.0125252  -0.0147687   0.0486633   0.0130431   0.0205302
   22   0.0000685  -0.0027147  -0.0062284  -0.0324721  -0.0119877  -0.0305044
   23  -0.0079227   0.0088695   0.0022266  -0.0084784  -0.0162725  -0.0185667
   24  -0.0111960   0.0103187  -0.0008121  -0.0086973   0.0071719  -0.0076629
   25   0.0055727   0.0031830   0.0115414  -0.2052575  -0.0695728   0.0524228
   26   0.0377689  -0.0011919   0.0246711  -0.0562304   0.0356253   0.0073220
   27  -0.0291570   0.0186913  -0.0045290   0.0957887   0.0242778   0.0311257
   28   0.0021357   0.0023250  -0.0026992   0.0077091   0.0327614   0.0200246
   29   0.0110046  -0.0150596   0.0055082  -0.0195115   0.0087632   0.0145991
   30   0.0004338   0.0004943  -0.0012438  -0.0207057  -0.0004085  -0.0096048
   31  -0.0230918  -0.0314382   0.0086571   0.0120009  -0.0135297   0.0234158
   32  -0.0314382   0.0256491  -0.0242782   0.0181900  -0.0145370   0.0056502
   33   0.0086571  -0.0242782   0.0236368  -0.0165508  -0.0155767  -0.0051060
   34   0.0120009   0.0181900  -0.0165508   0.2218657   0.0496827  -0.1189968
   35  -0.0135297  -0.0145370  -0.0155767   0.0496827  -0.0284012  -0.0301362
   36   0.0234158   0.0056502  -0.0051060  -0.1189968  -0.0301362  -0.0249575
   37  -0.0036660  -0.0017678  -0.0044562   0.0002146   0.0074857   0.0133880
   38   0.0011345  -0.0014010  -0.0014091   0.0030343   0.0046496   0.0038553
   39  -0.0063250  -0.0026457  -0.0053426   0.0019249   0.0074419   0.0207022
   40   0.0023672  -0.0000950   0.0023574   0.0063937   0.0029518   0.0022324
   41   0.0038071  -0.0001529   0.0019785   0.0051899   0.0020987  -0.0025469
   42  -0.0006691  -0.0001152  -0.0000742  -0.0014163  -0.0010951   0.0000994
   43   0.0002883  -0.0026491   0.0010099  -0.0016082  -0.0010560   0.0021970
   44   0.0028673   0.0022070   0.0000623  -0.0009000   0.0000404  -0.0041534
   45  -0.0003844   0.0023210  -0.0017451   0.0028611   0.0099762   0.0045371
           37          38          39          40          41          42
    1   0.0021228   0.0007023   0.0058078   0.0047143  -0.0025080   0.0042061
    2   0.0003346  -0.0002871   0.0046654   0.0048240  -0.0150359   0.0104566
    3   0.0005130   0.0018451   0.0037039   0.0042640  -0.0014851   0.0049768
    4  -0.0002483   0.0001275   0.0009266  -0.0001517   0.0001620   0.0005790
    5  -0.0017130   0.0003198  -0.0058626  -0.0031321   0.0088131  -0.0086120
    6   0.0007335  -0.0002680   0.0009881   0.0020765  -0.0027436   0.0008354
    7  -0.0000060  -0.0001386  -0.0007728  -0.0002457   0.0004006  -0.0006151
    8  -0.0001261   0.0003306  -0.0020146  -0.0010193   0.0042462  -0.0037426
    9  -0.0001667   0.0001144  -0.0010674  -0.0006353   0.0019988  -0.0018622
   10  -0.0094054   0.0059501  -0.0098890   0.0115924   0.0115611  -0.0027295
   11  -0.0003106  -0.0095557   0.0075005  -0.0082854  -0.0124343   0.0010374
   12   0.0048599   0.0007596   0.0033895  -0.0059484  -0.0032726   0.0003901
   13  -0.0726861  -0.0003015  -0.0228398  -0.1027232  -0.0531866   0.0175775
   14   0.0077258  -0.0180074   0.0174744  -0.0539256  -0.0609093  -0.0119911
   15   0.0026345   0.0171699  -0.0821689   0.0150912  -0.0089447  -0.0696268
   16   0.0001049  -0.0005627   0.0015294   0.0023701   0.0017967   0.0003400
   17   0.0002438   0.0064984   0.0012183   0.0059450   0.0056150  -0.0013956
   18   0.0013457  -0.0004942   0.0027900   0.0011602   0.0008242  -0.0000812
   19   0.0137296  -0.0011136   0.0018493  -0.0145669  -0.0159243   0.0045048
   20   0.0004452  -0.0002435  -0.0093286   0.0032149  -0.0024735   0.0025303
   21  -0.0184553  -0.0082298  -0.0384079  -0.0086493  -0.0012137   0.0020578
   22   0.0068624  -0.0002364   0.0183598   0.0016115  -0.0002657  -0.0015419
   23   0.0023772  -0.0000587   0.0107326   0.0018335   0.0010800  -0.0001789
   24   0.0067408   0.0061797   0.0227911   0.0022127   0.0009540  -0.0015321
   25   0.0007034  -0.0048770  -0.0036299  -0.0109416  -0.0067164   0.0019407
   26  -0.0006204  -0.0004354  -0.0009562  -0.0024546  -0.0011414   0.0005356
   27   0.0005496   0.0013797   0.0001930  -0.0012415   0.0000704  -0.0001188
   28  -0.0084236  -0.0027684  -0.0083727   0.0019516   0.0012807  -0.0007705
   29  -0.0078369  -0.0016563  -0.0085967   0.0030400   0.0019153  -0.0005100
   30  -0.0003468  -0.0010868  -0.0037787   0.0005917   0.0005996  -0.0011648
   31  -0.0036660   0.0011345  -0.0063250   0.0023672   0.0038071  -0.0006691
   32  -0.0017678  -0.0014010  -0.0026457  -0.0000950  -0.0001529  -0.0001152
   33  -0.0044562  -0.0014091  -0.0053426   0.0023574   0.0019785  -0.0000742
   34   0.0002146   0.0030343   0.0019249   0.0063937   0.0051899  -0.0014163
   35   0.0074857   0.0046496   0.0074419   0.0029518   0.0020987  -0.0010951
   36   0.0133880   0.0038553   0.0207022   0.0022324  -0.0025469   0.0000994
   37   0.0442587   0.0030303   0.0151127  -0.0006183   0.0043653  -0.0144131
   38   0.0030303   0.0244615  -0.0012698  -0.0002184  -0.0023148  -0.0097977
   39   0.0151127  -0.0012698   0.0885179  -0.0176126  -0.0061113   0.0121909
   40  -0.0006183  -0.0002184  -0.0176126   0.1128625   0.0437978  -0.0113593
   41   0.0043653  -0.0023148  -0.0061113   0.0437978   0.0585511   0.0081990
   42  -0.0144131  -0.0097977   0.0121909  -0.0113593   0.0081990   0.0441893
   43   0.0270574  -0.0037625   0.0239311  -0.0146159   0.0062399   0.0043666
   44  -0.0136332  -0.0023001  -0.0122474   0.0035233   0.0121427   0.0146793
   45  -0.0080396  -0.0087483  -0.0245012   0.0154602   0.0116934   0.0097204
           43          44          45
    1   0.0006921  -0.0013998  -0.0006644
    2   0.0020490  -0.0032127  -0.0021652
    3   0.0003269  -0.0008640  -0.0001016
    4  -0.0003052   0.0004711  -0.0001986
    5  -0.0019539   0.0026493   0.0016965
    6   0.0005738   0.0000012   0.0000927
    7  -0.0000760   0.0002459   0.0001152
    8  -0.0008360   0.0014861   0.0008437
    9  -0.0006696   0.0004278   0.0003685
   10  -0.0059297   0.0013642   0.0042731
   11   0.0109784  -0.0161103  -0.0122520
   12   0.0006236   0.0043562   0.0037377
   13  -0.0724420   0.0187737  -0.0014005
   14   0.0044957  -0.0380828  -0.0168960
   15  -0.0161572  -0.0231928  -0.0209205
   16   0.0012928  -0.0007491  -0.0024481
   17  -0.0049028   0.0035116   0.0042020
   18  -0.0001438  -0.0012444  -0.0003139
   19   0.0059769   0.0112847   0.0015462
   20  -0.0029039   0.0066640   0.0044518
   21  -0.0013682   0.0054288   0.0027718
   22   0.0027504  -0.0093697  -0.0008152
   23   0.0053394  -0.0091957  -0.0032050
   24   0.0026340  -0.0086420  -0.0098818
   25   0.0010426  -0.0040105   0.0059740
   26   0.0033406  -0.0051814  -0.0040429
   27  -0.0011227   0.0007832  -0.0000228
   28  -0.0062803   0.0042291  -0.0062004
   29  -0.0016817   0.0034596  -0.0124742
   30  -0.0061227   0.0000063   0.0118079
   31   0.0002883   0.0028673  -0.0003844
   32  -0.0026491   0.0022070   0.0023210
   33   0.0010099   0.0000623  -0.0017451
   34  -0.0016082  -0.0009000   0.0028611
   35  -0.0010560   0.0000404   0.0099762
   36   0.0021970  -0.0041534   0.0045371
   37   0.0270574  -0.0136332  -0.0080396
   38  -0.0037625  -0.0023001  -0.0087483
   39   0.0239311  -0.0122474  -0.0245012
   40  -0.0146159   0.0035233   0.0154602
   41   0.0062399   0.0121427   0.0116934
   42   0.0043666   0.0146793   0.0097204
   43   0.0621568  -0.0126970  -0.0100786
   44  -0.0126970   0.0419223   0.0245989
   45  -0.0100786   0.0245989   0.0244509
 Gradient time:  CPU 2784.72 s  wall 2785.04 s
 **********************************************************************
 **                                                                  **
 **                       VIBRATIONAL ANALYSIS                       **
 **                       --------------------                       **
 **                                                                  **
 **        VIBRATIONAL FREQUENCIES (CM**-1) AND NORMAL MODES         **
 **     FORCE CONSTANTS (mDYN/ANGSTROM) AND REDUCED MASSES (AMU)     **
 **                  INFRARED INTENSITIES (KM/MOL)                   **
 **                                                                  **
 **********************************************************************
 

 Mode:                 1                      2                      3
 Frequency:     -1614.70               -1206.58               -1082.78
 Force Cnst:      1.6168                 1.0183                 1.1853
 Red. Mass:       1.0525                 1.1872                 1.7160
 IR Active:          YES                    YES                    YES
 IR Intens:      327.730               2208.858                719.177
 Raman Active:       YES                    YES                    YES
               X      Y      Z        X      Y      Z        X      Y      Z
 C          0.000  0.000  0.000   -0.005 -0.004  0.000    0.001  0.010 -0.002
 O          0.001  0.001 -0.001    0.001  0.005 -0.003   -0.003 -0.008  0.001
 O          0.001  0.000  0.001    0.002  0.002  0.003   -0.007  0.002 -0.013
 C          0.014  0.004 -0.009    0.037  0.005 -0.014   -0.120 -0.005  0.024
 O          0.000 -0.003 -0.003    0.000 -0.006 -0.001    0.000  0.018 -0.014
 C          0.004  0.001  0.000   -0.001  0.004 -0.007   -0.006 -0.025  0.016
 O         -0.017 -0.008 -0.001   -0.050 -0.003  0.017    0.135  0.022  0.056
 C          0.003 -0.003  0.009   -0.001  0.000  0.022   -0.038  0.002  0.035
 H         -0.259  0.564 -0.194   -0.078 -0.127  0.237    0.302  0.242  0.574
 H          0.542  0.285  0.090    0.551  0.173 -0.036    0.007  0.210 -0.483
 H         -0.411 -0.060 -0.075    0.657  0.277  0.097   -0.063 -0.265 -0.272
 C          0.008 -0.055  0.009   -0.070 -0.020 -0.070   -0.021 -0.048 -0.110
 H          0.042  0.019  0.025    0.107  0.027  0.095   -0.015  0.048  0.050
 H         -0.017 -0.010 -0.001   -0.016 -0.054  0.019    0.035  0.060 -0.050
 H          0.010 -0.006  0.095    0.007 -0.073  0.157   -0.041 -0.044  0.153
 TransDip  -0.249  0.167 -0.496   -0.432  0.973 -1.064    0.368 -0.475  0.613

 Mode:                 4                      5                      6
 Frequency:      -694.62                -596.75                -489.77
 Force Cnst:      0.6987                 0.3613                 0.2416
 Red. Mass:       2.4576                 1.7218                 1.7097
 IR Active:          YES                    YES                    YES
 IR Intens:     1176.496                141.309                135.631
 Raman Active:       YES                    YES                    YES
               X      Y      Z        X      Y      Z        X      Y      Z
 C          0.001  0.001  0.005   -0.023  0.010 -0.013    0.015 -0.014  0.024
 O         -0.012 -0.007 -0.013   -0.009  0.012  0.001    0.008  0.001 -0.007
 O         -0.014  0.003 -0.035   -0.004  0.012  0.011    0.011 -0.009  0.030
 C         -0.218 -0.052  0.077    0.015 -0.001  0.034    0.042 -0.018 -0.015
 O          0.008  0.027 -0.016   -0.006  0.006 -0.011   -0.005  0.008 -0.044
 C          0.035 -0.003  0.032   -0.112 -0.030  0.017    0.054  0.022 -0.017
 O          0.195  0.058 -0.010   -0.035  0.022  0.099   -0.019  0.046 -0.052
 C          0.019 -0.031 -0.033    0.049 -0.029 -0.118   -0.060  0.082  0.151
 H         -0.249 -0.140 -0.462    0.321 -0.081  0.278   -0.111  0.124  0.160
 H          0.369 -0.301  0.453    0.347 -0.209  0.544   -0.034 -0.196  0.317
 H          0.204  0.234  0.068   -0.108 -0.267 -0.020    0.256 -0.347 -0.476
 C         -0.097 -0.012  0.029    0.081  0.010 -0.092   -0.054 -0.096  0.011
 H         -0.099  0.040 -0.036    0.035  0.034  0.013   -0.056 -0.194 -0.199
 H          0.021  0.091 -0.005    0.094 -0.012  0.045    0.031 -0.030 -0.017
 H          0.056 -0.069 -0.165    0.047  0.173 -0.404    0.053  0.204 -0.454
 TransDip   0.990  0.131 -0.458   -0.121  0.231  0.277   -0.110 -0.171  0.312

 Mode:                 7                      8                      9
 Frequency:      -258.57                -228.65                -208.49
 Force Cnst:      0.3196                 0.0426                 0.1428
 Red. Mass:       8.1122                 1.3822                 5.5774
 IR Active:          YES                    YES                    YES
 IR Intens:       21.004                  5.334                 10.951
 Raman Active:       YES                    YES                    YES
               X      Y      Z        X      Y      Z        X      Y      Z
 C         -0.026 -0.090  0.074   -0.014 -0.015  0.005   -0.077  0.005  0.022
 O         -0.055  0.012 -0.088   -0.031  0.003 -0.004   -0.080  0.049 -0.058
 O          0.043 -0.030  0.110    0.006  0.000  0.018    0.031  0.056 -0.025
 C         -0.042 -0.240  0.194    0.006 -0.041  0.026   -0.128 -0.119  0.158
 O          0.048 -0.076 -0.028    0.007 -0.003  0.012    0.205  0.011  0.027
 C         -0.037  0.543 -0.323   -0.092  0.009 -0.027    0.052 -0.062  0.138
 O         -0.010  0.018  0.010    0.035 -0.024  0.044   -0.187  0.188 -0.180
 C          0.011 -0.222  0.094    0.017  0.047 -0.056   -0.089 -0.078 -0.142
 H          0.116  0.010  0.132   -0.074  0.484 -0.128    0.201 -0.038  0.096
 H          0.160  0.123 -0.173   -0.450  0.225  0.141    0.078  0.109 -0.199
 H         -0.186 -0.072  0.095    0.374  0.472 -0.198    0.307 -0.168 -0.375
 C          0.032  0.163 -0.033    0.067 -0.065 -0.024    0.187 -0.129  0.144
 H          0.005 -0.316 -0.068    0.076 -0.055  0.049    0.126  0.059  0.067
 H          0.092 -0.177  0.034    0.045 -0.044  0.043    0.199 -0.041  0.039
 H          0.133 -0.187 -0.132   -0.056  0.072 -0.107    0.249 -0.200  0.319
 TransDip   0.046  0.049  0.130    0.059  0.044 -0.007    0.023  0.100  0.025

 Mode:                10                     11                     12
 Frequency:      -162.52                 -78.06                  99.78
 Force Cnst:      0.0950                 0.0236                 0.0446
 Red. Mass:       6.1050                 6.5618                 7.6051
 IR Active:          YES                    YES                    YES
 IR Intens:        9.814                  8.870                  3.103
 Raman Active:       YES                    YES                    YES
               X      Y      Z        X      Y      Z        X      Y      Z
 C          0.042 -0.006  0.077    0.061  0.008 -0.053    0.124  0.030  0.016
 O          0.024 -0.132  0.328   -0.111  0.044  0.030    0.399  0.021 -0.185
 O          0.117 -0.008 -0.239    0.295  0.128 -0.219   -0.024 -0.060  0.032
 C          0.024  0.023  0.147    0.057 -0.140  0.094    0.025  0.087  0.220
 O         -0.123 -0.021 -0.273    0.171 -0.081  0.124   -0.027  0.033 -0.017
 C         -0.063  0.078  0.089   -0.143 -0.098  0.041   -0.173  0.105  0.172
 O         -0.058  0.068 -0.015   -0.040 -0.012  0.035   -0.115  0.107  0.005
 C          0.023 -0.056 -0.024   -0.081  0.055  0.092    0.058 -0.147 -0.062
 H          0.051  0.137  0.049   -0.290  0.007 -0.079   -0.296 -0.051 -0.082
 H          0.062  0.192 -0.213   -0.268 -0.061  0.109   -0.513  0.020 -0.061
 H          0.153  0.196 -0.049   -0.406 -0.067  0.069   -0.253  0.095  0.023
 C          0.053  0.042  0.073   -0.280  0.106 -0.163   -0.238 -0.222 -0.118
 H         -0.224 -0.100 -0.259    0.232 -0.169  0.077   -0.076  0.032  0.007
 H         -0.235  0.140 -0.458    0.209 -0.149  0.217   -0.071  0.092 -0.095
 H         -0.105 -0.055 -0.209    0.143 -0.002 -0.041   -0.044 -0.049  0.102
 TransDip  -0.088 -0.047  0.000    0.087 -0.014  0.035    0.040  0.028 -0.028

 Mode:                13                     14                     15
 Frequency:       153.97                 229.45                 266.25
 Force Cnst:      0.0904                 0.1767                 0.1546
 Red. Mass:       6.4710                 5.6956                 3.7021
 IR Active:          YES                    YES                    YES
 IR Intens:        9.081                 31.958                 18.300
 Raman Active:       YES                    YES                    YES
               X      Y      Z        X      Y      Z        X      Y      Z
 C         -0.062  0.049 -0.023   -0.040  0.016 -0.044   -0.079 -0.023 -0.068
 O         -0.089 -0.005  0.121   -0.048  0.022 -0.042   -0.024 -0.053 -0.034
 O         -0.131  0.013  0.003   -0.048  0.013 -0.038   -0.064 -0.038 -0.144
 C          0.050  0.135 -0.159   -0.060  0.055  0.019   -0.042  0.061  0.007
 O          0.258  0.085 -0.100    0.182 -0.112 -0.203    0.007  0.059  0.070
 C         -0.246 -0.042 -0.088    0.131  0.133 -0.006    0.295  0.026  0.088
 O          0.052  0.109 -0.009   -0.048 -0.085  0.245   -0.084  0.009  0.080
 C          0.082 -0.265  0.279    0.024  0.235 -0.119    0.076 -0.205  0.055
 H         -0.061 -0.183 -0.168   -0.093 -0.188  0.259   -0.005  0.345  0.178
 H         -0.167 -0.059 -0.022   -0.114 -0.025 -0.109   -0.296  0.213  0.169
 H         -0.144  0.198  0.368   -0.225 -0.029  0.451    0.015  0.259 -0.023
 C          0.024 -0.172 -0.024   -0.122 -0.194  0.183   -0.028  0.076 -0.059
 H          0.275  0.137 -0.108    0.355  0.037 -0.123    0.192 -0.018  0.006
 H          0.241  0.131 -0.110    0.190 -0.122 -0.188    0.120 -0.060  0.197
 H          0.245  0.084 -0.016    0.075 -0.011 -0.084   -0.035  0.387 -0.386
 TransDip   0.021 -0.025 -0.091    0.005 -0.005 -0.181   -0.118 -0.019  0.066

 Mode:                16                     17                     18
 Frequency:       326.00                 422.19                 461.31
 Force Cnst:      0.3827                 0.5675                 0.3580
 Red. Mass:       6.1123                 5.4038                 2.8550
 IR Active:          YES                    YES                    YES
 IR Intens:       37.584                 19.112                152.670
 Raman Active:       YES                    YES                    YES
               X      Y      Z        X      Y      Z        X      Y      Z
 C          0.031 -0.172 -0.072    0.171 -0.072  0.017    0.008  0.011 -0.042
 O         -0.213 -0.075 -0.106    0.018 -0.033  0.013   -0.052  0.006 -0.002
 O          0.178 -0.092  0.096    0.224  0.002  0.136   -0.036 -0.014 -0.005
 C          0.085 -0.067 -0.032   -0.194  0.002 -0.124    0.065  0.045 -0.027
 O         -0.144  0.086 -0.046    0.019  0.273 -0.044    0.036 -0.011  0.043
 C          0.067 -0.064 -0.030   -0.038 -0.035 -0.077   -0.085 -0.004 -0.016
 O         -0.016  0.323  0.089   -0.102 -0.147  0.024    0.028 -0.014  0.008
 C          0.209  0.062  0.022   -0.110 -0.121 -0.085    0.213 -0.081 -0.110
 H         -0.059 -0.121  0.103    0.004  0.068  0.151   -0.128  0.127  0.186
 H         -0.219  0.112  0.077    0.069  0.055 -0.234    0.031  0.050 -0.131
 H         -0.262  0.090  0.348    0.033  0.135  0.044    0.241 -0.320 -0.701
 C         -0.041 -0.100 -0.003   -0.075 -0.005  0.135   -0.173  0.096  0.192
 H         -0.246  0.259  0.080    0.133  0.344 -0.123   -0.202 -0.138 -0.007
 H         -0.192  0.080 -0.094    0.144  0.171  0.099    0.002  0.063 -0.076
 H         -0.113 -0.160  0.331    0.030  0.445 -0.380    0.129 -0.059  0.078
 TransDip  -0.085  0.143 -0.105    0.097 -0.049  0.088    0.106 -0.249  0.289

 Mode:                19                     20                     21
 Frequency:       474.18                 546.77                 591.33
 Force Cnst:      0.6950                 0.2382                 1.6884
 Red. Mass:       5.2461                 1.3525                 8.1951
 IR Active:          YES                    YES                    YES
 IR Intens:       21.216                 72.536                 65.675
 Raman Active:       YES                    YES                    YES
               X      Y      Z        X      Y      Z        X      Y      Z
 C         -0.127 -0.101  0.033   -0.012 -0.013  0.002    0.172 -0.107 -0.064
 O         -0.166 -0.007 -0.152   -0.021 -0.004 -0.016   -0.137 -0.049 -0.044
 O          0.018 -0.081 -0.041    0.015 -0.007  0.005    0.167 -0.087  0.103
 C          0.206  0.100  0.219    0.014  0.026  0.014   -0.198  0.503 -0.098
 O         -0.012  0.177 -0.041    0.038  0.040 -0.054    0.016 -0.297  0.028
 C         -0.086  0.078  0.217    0.034  0.026  0.023   -0.069  0.168  0.179
 O          0.116 -0.166 -0.090   -0.020 -0.075  0.037    0.002  0.048 -0.047
 C         -0.003  0.048  0.031   -0.047 -0.022  0.025   -0.075 -0.049  0.006
 H          0.000 -0.171 -0.148   -0.008  0.066 -0.052    0.050  0.029 -0.205
 H          0.287 -0.109 -0.493   -0.153 -0.079  0.408    0.021 -0.063  0.152
 H          0.003 -0.066  0.096    0.076 -0.085 -0.191    0.159 -0.035 -0.263
 C          0.028 -0.026  0.000    0.009  0.034 -0.059    0.078  0.048 -0.062
 H          0.143  0.142 -0.217   -0.400  0.320  0.121    0.278 -0.199 -0.008
 H          0.099  0.020  0.218    0.001  0.090 -0.337    0.004 -0.273  0.113
 H         -0.038  0.223 -0.261    0.301 -0.183  0.446   -0.168 -0.054  0.032
 TransDip  -0.089 -0.113  0.034   -0.224  0.156 -0.006    0.203 -0.080 -0.140

 Mode:                22                     23                     24
 Frequency:       668.56                 733.54                 744.50
 Force Cnst:      0.2919                 0.5981                 0.7431
 Red. Mass:       1.1083                 1.8867                 2.2753
 IR Active:          YES                    YES                    YES
 IR Intens:        4.548                 59.868                200.845
 Raman Active:       YES                    YES                    YES
               X      Y      Z        X      Y      Z        X      Y      Z
 C         -0.021 -0.002 -0.004    0.165  0.029 -0.050    0.203  0.027  0.020
 O          0.026 -0.007  0.009   -0.064  0.080  0.014   -0.060  0.145  0.034
 O          0.001  0.017 -0.002   -0.059 -0.104 -0.019   -0.074 -0.120 -0.051
 C          0.005 -0.009  0.000    0.019 -0.037  0.032    0.002 -0.038  0.020
 O         -0.022 -0.002 -0.057    0.035  0.059 -0.011   -0.039 -0.038  0.003
 C         -0.004 -0.003 -0.008    0.017  0.000  0.010   -0.001 -0.004  0.001
 O          0.001  0.001  0.012   -0.022 -0.015  0.028   -0.003  0.009 -0.021
 C          0.008 -0.013  0.020   -0.044 -0.011 -0.001    0.003  0.002  0.001
 H         -0.020  0.014 -0.031    0.001  0.000 -0.034    0.024  0.014  0.061
 H         -0.083 -0.006  0.122   -0.013 -0.040  0.142    0.000  0.059 -0.099
 H          0.043 -0.120 -0.185    0.027 -0.090 -0.052   -0.032  0.102  0.077
 C         -0.006  0.028  0.014    0.017  0.015 -0.017    0.000 -0.017  0.001
 H          0.298  0.475 -0.220    0.334 -0.338  0.027   -0.271  0.495 -0.077
 H          0.049 -0.130  0.579   -0.254  0.537 -0.030    0.224 -0.487  0.155
 H         -0.187 -0.396  0.092   -0.442 -0.342  0.058    0.404  0.252 -0.075
 TransDip  -0.008  0.060  0.031    0.064  0.180 -0.158    0.369 -0.129  0.231

 Mode:                25                     26                     27
 Frequency:       769.96                 883.01                 939.20
 Force Cnst:      2.9692                 0.5388                 0.6084
 Red. Mass:       8.5007                 1.1728                 1.1705
 IR Active:          YES                    YES                    YES
 IR Intens:        5.479                308.522                104.680
 Raman Active:       YES                    YES                    YES
               X      Y      Z        X      Y      Z        X      Y      Z
 C         -0.096 -0.140  0.663   -0.015 -0.004  0.023   -0.003  0.009  0.003
 O          0.019  0.187 -0.134   -0.003 -0.002 -0.017   -0.003 -0.004 -0.008
 O          0.063 -0.107 -0.199    0.008 -0.007 -0.002    0.000  0.005  0.004
 C         -0.074  0.082 -0.170    0.026  0.023 -0.012   -0.014 -0.037  0.020
 O          0.012  0.001 -0.019    0.039 -0.060  0.038    0.014 -0.063  0.018
 C         -0.021 -0.074 -0.081    0.004  0.002 -0.004   -0.001  0.005 -0.011
 O         -0.010  0.016  0.030    0.006  0.000 -0.035   -0.028  0.005  0.032
 C          0.091 -0.009 -0.016   -0.028  0.003 -0.009    0.037  0.011  0.034
 H         -0.008  0.017  0.060    0.071  0.102  0.256   -0.049 -0.075 -0.284
 H         -0.094  0.020  0.212    0.018  0.114  0.021    0.062 -0.129 -0.253
 H          0.000 -0.170  0.017   -0.072  0.215  0.149    0.082 -0.080 -0.237
 C          0.000  0.029 -0.001   -0.018 -0.012  0.020    0.016  0.009 -0.025
 H          0.304 -0.170  0.062   -0.357  0.292 -0.084    0.183  0.549  0.108
 H         -0.109  0.095 -0.128   -0.162  0.524  0.140   -0.242  0.294 -0.239
 H         -0.262 -0.006  0.200    0.080 -0.309 -0.422   -0.176  0.399 -0.082
 TransDip   0.048 -0.011 -0.057   -0.067 -0.143  0.540   -0.186 -0.102 -0.250

 Mode:                28                     29                     30
 Frequency:       955.51                1079.16                1259.79
 Force Cnst:      0.7974                 2.4090                 1.0341
 Red. Mass:       1.4823                 3.5108                 1.1059
 IR Active:          YES                    YES                    YES
 IR Intens:      549.257                 73.255                 26.655
 Raman Active:       YES                    YES                    YES
               X      Y      Z        X      Y      Z        X      Y      Z
 C         -0.005  0.009 -0.012    0.054  0.000 -0.020    0.026  0.004  0.022
 O         -0.004 -0.007 -0.003   -0.009 -0.030 -0.005   -0.012 -0.028 -0.017
 O          0.001  0.000  0.006   -0.021  0.041  0.004   -0.013  0.023 -0.004
 C          0.056 -0.005  0.025   -0.192 -0.057  0.014    0.016 -0.001  0.004
 O         -0.010 -0.034 -0.013    0.007  0.009  0.005   -0.030 -0.007  0.014
 C         -0.004  0.008 -0.012   -0.057  0.027  0.072    0.005 -0.004 -0.007
 O          0.072  0.009 -0.097   -0.073 -0.117 -0.145    0.022  0.002  0.024
 C         -0.067 -0.045 -0.037    0.289  0.124  0.106   -0.037 -0.005 -0.012
 H          0.075  0.128  0.387   -0.064  0.116  0.342    0.056 -0.380 -0.036
 H         -0.118  0.145  0.427   -0.129  0.190  0.280   -0.008  0.423  0.144
 H         -0.011 -0.056  0.270    0.075 -0.233  0.425   -0.152  0.145 -0.270
 C         -0.058  0.012  0.074    0.044  0.012 -0.058    0.003 -0.013  0.002
 H          0.359  0.258  0.198    0.105 -0.017 -0.357    0.268 -0.085 -0.359
 H         -0.082 -0.044 -0.232   -0.239  0.167  0.016   -0.238  0.157  0.030
 H         -0.228  0.338  0.185    0.142  0.074  0.178    0.454  0.137  0.108
 TransDip   0.155  0.088 -0.729   -0.108 -0.178 -0.178    0.085  0.094  0.106

 Mode:                31                     32                     33
 Frequency:      1262.49                1309.57                1425.10
 Force Cnst:      8.2730                 1.0741                 1.3121
 Red. Mass:       8.8096                 1.0630                 1.0966
 IR Active:          YES                    YES                    YES
 IR Intens:      317.887                346.708                713.086
 Raman Active:       YES                    YES                    YES
               X      Y      Z        X      Y      Z        X      Y      Z
 C          0.417 -0.108  0.230    0.014 -0.012  0.002    0.009  0.013  0.009
 O         -0.122 -0.299 -0.149    0.000 -0.004  0.003   -0.005 -0.010 -0.006
 O         -0.237  0.383 -0.050   -0.008  0.011 -0.002    0.000  0.000 -0.001
 C          0.101 -0.006  0.002   -0.019 -0.004  0.000   -0.008 -0.005  0.003
 O          0.013  0.010 -0.003    0.020  0.013 -0.011   -0.001  0.007  0.010
 C          0.005  0.005  0.025   -0.004  0.006  0.010    0.002  0.006  0.000
 O         -0.009  0.028  0.034    0.001 -0.022 -0.017   -0.020 -0.021 -0.036
 C         -0.047 -0.036 -0.037    0.024  0.021  0.027    0.041  0.028  0.036
 H         -0.033  0.281 -0.007   -0.011 -0.410 -0.086    0.237 -0.062  0.226
 H          0.011 -0.322 -0.136   -0.013  0.586  0.137    0.127 -0.339  0.059
 H          0.117 -0.096  0.190   -0.098 -0.052 -0.171   -0.347  0.609 -0.376
 C          0.008  0.009 -0.007    0.006 -0.008  0.000   -0.014 -0.011  0.012
 H         -0.132  0.078  0.150   -0.192  0.055  0.373    0.103  0.034 -0.012
 H          0.127 -0.148  0.005    0.210 -0.115 -0.052    0.113 -0.111 -0.179
 H         -0.207 -0.130 -0.081   -0.344 -0.074 -0.228   -0.169 -0.107  0.072
 TransDip   0.539 -0.087  0.166    0.104  0.147 -0.568    0.015 -0.470  0.714

 Mode:                34                     35                     36
 Frequency:      1528.92                1609.62                1817.98
 Force Cnst:      1.5591                15.9474                 2.2418
 Red. Mass:       1.1321                10.4470                 1.1513
 IR Active:          YES                    YES                    YES
 IR Intens:       72.173                233.721                281.058
 Raman Active:       YES                    YES                    YES
               X      Y      Z        X      Y      Z        X      Y      Z
 C          0.007 -0.017  0.001    0.015  0.741  0.187    0.004  0.008  0.004
 O          0.002  0.003  0.001   -0.113 -0.314 -0.147   -0.001 -0.004 -0.001
 O         -0.005  0.007 -0.001    0.113 -0.214  0.021    0.001 -0.002 -0.001
 C         -0.002 -0.005  0.007   -0.008  0.015  0.047   -0.003 -0.013 -0.021
 O          0.015 -0.026 -0.082    0.011 -0.002 -0.018   -0.083 -0.013 -0.017
 C          0.001  0.001 -0.002    0.004 -0.039 -0.083   -0.002  0.015  0.024
 O         -0.003 -0.005 -0.011   -0.031 -0.007  0.004   -0.005 -0.003 -0.019
 C          0.009  0.005  0.009    0.014  0.007  0.008    0.019  0.011  0.016
 H          0.067 -0.034  0.038   -0.030  0.016 -0.083    0.020  0.050 -0.046
 H          0.024 -0.096  0.030   -0.016  0.079  0.038   -0.053 -0.050 -0.052
 H         -0.079  0.136 -0.092    0.105 -0.111  0.112    0.008 -0.047  0.008
 C         -0.005 -0.001  0.006    0.006  0.003 -0.009   -0.007  0.002  0.010
 H         -0.222 -0.190  0.375   -0.162 -0.050  0.062    0.402  0.009  0.479
 H         -0.067  0.278  0.615    0.171 -0.124  0.262    0.454  0.327 -0.060
 H          0.017  0.427  0.266   -0.096  0.055  0.036    0.451 -0.212 -0.136
 TransDip   0.016 -0.193 -0.191    0.049  0.477  0.098   -0.327  0.201 -0.376

 Mode:                37                     38                     39
 Frequency:      1874.37                2096.32                2524.77
 Force Cnst:     17.8024                 2.7587                 4.2116
 Red. Mass:       8.6004                 1.0655                 1.1214
 IR Active:          YES                    YES                    YES
 IR Intens:      136.837                839.858                684.496
 Raman Active:       YES                    YES                    YES
               X      Y      Z        X      Y      Z        X      Y      Z
 C          0.029 -0.086 -0.025   -0.002 -0.004  0.000    0.001 -0.003  0.001
 O         -0.005  0.018  0.005    0.001  0.003  0.001    0.000  0.001 -0.001
 O         -0.014  0.031  0.009    0.000  0.001  0.000    0.000  0.000  0.000
 C         -0.052  0.336  0.477    0.013 -0.027 -0.025    0.006 -0.007 -0.011
 O         -0.035 -0.017  0.009   -0.020 -0.033  0.018    0.006  0.003  0.001
 C          0.078 -0.304 -0.469   -0.002  0.018  0.021    0.005  0.009  0.008
 O         -0.063 -0.034 -0.040   -0.002  0.007  0.009   -0.017 -0.004 -0.008
 C          0.050  0.038  0.052   -0.010 -0.006 -0.009    0.014  0.012  0.021
 H          0.086  0.060 -0.100    0.034 -0.016 -0.052    0.851  0.183 -0.424
 H         -0.002  0.076  0.023    0.033  0.066  0.041    0.042  0.118  0.046
 H          0.068 -0.064  0.079    0.050 -0.012  0.040    0.101 -0.062  0.093
 C         -0.007 -0.001 -0.002   -0.005 -0.002 -0.004   -0.089 -0.024  0.015
 H          0.055 -0.043 -0.097   -0.139 -0.009 -0.453   -0.010 -0.023 -0.017
 H          0.442  0.230 -0.068    0.680  0.358 -0.045   -0.086 -0.050  0.010
 H          0.035 -0.023  0.044   -0.260  0.194  0.239    0.010 -0.025  0.001
 TransDip   0.143 -0.333 -0.093   -0.328 -0.689  0.529   -0.084 -0.227  0.802

 STANDARD THERMODYNAMIC QUANTITIES AT   298.15 K  AND     1.00 ATM

   This Molecule has 11 Imaginary Frequencies
   Zero point vibrational energy:       38.675 kcal/mol

   Atom    1 Element C  Has Mass   12.00000
   Atom    2 Element O  Has Mass   15.99491
   Atom    3 Element O  Has Mass   15.99491
   Atom    4 Element C  Has Mass   12.00000
   Atom    5 Element O  Has Mass   15.99491
   Atom    6 Element C  Has Mass   12.00000
   Atom    7 Element O  Has Mass   15.99491
   Atom    8 Element C  Has Mass   12.00000
   Atom    9 Element H  Has Mass    1.00783
   Atom   10 Element H  Has Mass    1.00783
   Atom   11 Element H  Has Mass    1.00783
   Atom   12 Element C  Has Mass   12.00000
   Atom   13 Element H  Has Mass    1.00783
   Atom   14 Element H  Has Mass    1.00783
   Atom   15 Element H  Has Mass    1.00783
   Molecular Mass:   130.026620 amu
   Principal axes and moments of inertia in amu*Bohr^2:
                             1           2           3
    Eigenvalues --      797.09165  1580.54110  1626.13225
          X               0.99957    -0.02518    -0.01528
          Y               0.01881     0.94498    -0.32658
          Z               0.02266     0.32616     0.94504
   Rotational Symmetry Number is   1
   The Molecule is an Asymmetric Top
   Translational Enthalpy:        0.889 kcal/mol
   Rotational Enthalpy:           0.889 kcal/mol
   Vibrational Enthalpy:         41.512 kcal/mol
   gas constant (RT):             0.592 kcal/mol
   Translational Entropy:        40.501  cal/mol.K
   Rotational Entropy:           29.106  cal/mol.K
   Vibrational Entropy:          15.937  cal/mol.K

   Total Enthalpy:               43.882 kcal/mol
   Total Entropy:                85.544  cal/mol.K
Archival summary:
1\1\bt2600-16\FREQ\ProcedureUnspecified\6-31+G*\456(2-,1)\emavera\MonMay813:42:002017MonMay813:42:002017\0\\#,FREQ,ProcedureUnspecified,6-31+G*,\\-2,1\O\C,1,1.26772\C,1,1.49977,2,120.14\C,3,1.26277,1,115.008,2,9.21773,0\H,1,1.5435,2,114.632,3,166.211,0\H,5,1.09521,1,115.557,2,123.916,0\H,5,1.10026,1,110.398,2,-113.747,0\C,5,1.10041,1,105.092,2,3.46504,0\C,3,1.61407,1,125.416,2,161.682,0\O,9,1.25184,3,128.151,1,72.3139,0\O,9,1.26959,3,107.646,1,-108.893,0\O,3,2.0569,1,73.3963,2,-104.918,0\H,12,1.08945,3,101.989,1,91.9375,0\H,12,1.09308,3,97.0441,1,-152.602,0\H,12,1.10543,3,127.456,1,-33.9993,0\\\@

 Total job time:  3106.59s(wall), 3107.74s(cpu) 
 Mon May  8 13:42:00 2017

        *************************************************************
        *                                                           *
        *  Thank you very much for using Q-Chem.  Have a nice day.  *
        *                                                           *
        *************************************************************


0 sent ACK to 0 
now end server 0 ... 
cleanup process ... done

Running Job 2 of 3 ts_solv_wo.qcin
qchem ts_solv_wo.qcin_47571.1 /tmp/ts_solv_wo.qcin/ 1
/programs/x86_64/lib/qchem-4.3.2/bin/mpi/mpirun_qchem -machinefile /var/spool/torque/aux//114842.vali -np 1 /programs/x86_64/lib/qchem-4.3.2/exe/qcprog.exe ts_solv_wo.qcin_47571.1 /tmp/ts_solv_wo.qcin/

Process 0 of 1 is on bt2600-16.csail.mit.edu - thread support 0
initial socket setup ...start
initial socket setup ...done 
now start server 0 ... 

cmd = ssh thor /programs/x86_64/lib/qchem-4.3.2/bin/get_hostid 931389999 > /tmp/ts_solv_wo.qcin/lic.dat
                  Welcome to Q-Chem
     A Quantum Leap Into The Future Of Chemistry


 Q-Chem 4.3, Q-Chem, Inc., Pleasanton, CA (2015)

 Y. Shao,  Z. Gan,  E. Epifanovsky,  A. T. B. Gilbert,  M. Wormit,  
 J. Kussmann,  A. W. Lange,  A. Behn,  J. Deng,  X. Feng,  D. Ghosh,  
 M. Goldey,  P. R. Horn,  L. D. Jacobson,  I. Kaliman,  R. Z. Khaliullin,  
 T. Kus,  A. Landau,  J. Liu,  E. I. Proynov,  Y. M. Rhee,  R. M. Richard,  
 M. A. Rohrdanz,  R. P. Steele,  E. J. Sundstrom,  H. L. Woodcock III,  
 P. M. Zimmerman,  D. Zuev,  B. Albrecht,  E. Alguire,  B. Austin,  
 S. A. Baeppler,  G. J. O. Beran,  Y. A. Bernard,  E. Berquist,  
 K. Brandhorst,  K. B. Bravaya,  S. T. Brown,  D. Casanova,  C.-M. Chang,  
 Y. Chen,  S. H. Chien,  K. D. Closser,  D. L. Crittenden,  M. Diedenhofen,  
 R. A. DiStasio Jr.,  H. Do,  A. D. Dutoi,  R. G. Edgar,  P.-T. Fang,  
 S. Fatehi,  Q. Feng,  L. Fusti-Molnar,  A. Ghysels,  
 A. Golubeva-Zadorozhnaya,  J. Gomes,  A. Gunina,  M. W. D. Hanson-Heine,  
 P. H. P. Harbach,  A. W. Hauser,  E. G. Hohenstein,  Z. C. Holden,  K. Hui,  
 T.-C. Jagau,  H. Ji,  B. Kaduk,  K. Khistyaev,  Jaehoon Kim,  Jihan Kim,  
 R. A. King,  P. Klunzinger,  D. Kosenkov,  T. Kowalczyk,  C. M. Krauter,  
 K. U. Lao,  A. Laurent,  K. V. Lawler,  S. Lehtola,  S. V. Levchenko,  
 C. Y. Lin,  Y.-S. Lin,  F. Liu,  E. Livshits,  R. C. Lochan,  A. Luenser,  
 P. Manohar,  S. F. Manzer,  S.-P. Mao,  N. Mardirossian,  A. V. Marenich,  
 L. A. Martinez-Martinez,  S. A. Maurer,  N. J. Mayhall,  K. Nanda,  
 C. M. Oana,  R. Olivares-Amaya,  D. P. O'Neill,  J. A. Parkhill,  
 T. M. Perrine,  R. Peverati,  P. A. Pieniazek,  F. Plasser,  A. Prociuk,  
 D. R. Rehn,  E. Rosta,  N. J. Russ,  N. Sergueev,  S. M. Sharada,  
 S. Sharma,  D. W. Small,  A. Sodt,  T. Stauch,  T. Stein,  D. Stuck,  
 Y.-C. Su,  A. J. W. Thom,  T. Tsuchimochi,  L. Vogt,  O. Vydrov,  T. Wang,  
 M. A. Watson,  J. Wenzel,  A. White,  C. F. Williams,  V. Vanovschi,  
 S. Yeganeh,  S. R. Yost,  Z.-Q. You,  I. Y. Zhang,  X. Zhang,  Y. Zhao,  
 B. R. Brooks,  G. K. L. Chan,  D. M. Chipman,  C. J. Cramer,  
 W. A. Goddard III,  M. S. Gordon,  W. J. Hehre,  A. Klamt,  
 H. F. Schaefer III,  M. W. Schmidt,  C. D. Sherrill,  D. G. Truhlar,  
 A. Warshel,  X. Xu,  A. Aspuru-Guzik,  R. Baer,  A. T. Bell,  N. A. Besley,  
 J.-D. Chai,  A. Dreuw,  B. D. Dunietz,  T. R. Furlani,  S. R. Gwaltney,  
 C.-P. Hsu,  Y. Jung,  J. Kong,  D. S. Lambrecht,  W. Liang,  C. Ochsenfeld,  
 V. A. Rassolov,  L. V. Slipchenko,  J. E. Subotnik,  T. Van Voorhis,  
 J. M. Herbert,  A. I. Krylov,  P. M. W. Gill,  M. Head-Gordon

 Contributors to earlier versions of Q-Chem not listed above: 
 R. D. Adamson,  J. Baker,  E. F. C. Byrd,  A. K. Chakraborty,  C.-L. Cheng,  
 H. Dachsel,  R. J. Doerksen,  G. Hawkins,  A. Heyden,  S. Hirata,  
 G. Kedziora,  F. J. Keil,  C. Kelley,  P. P. Korambath,  W. Kurlancheek,  
 A. M. Lee,  M. S. Lee,  D. Liotard,  I. Lotan,  P. E. Maslen,  N. Nair,  
 D. Neuhauser,  R. Olson,  B. Peters,  J. Ritchie,  N. E. Schultz,  
 N. Shenvi,  A. C. Simmonett,  K. S. Thanthiriwatte,  Q. Wu,  W. Zhang

 Please cite Q-Chem as follows:
 Y. Shao et al., Mol. Phys. 113, 184-215 (2015)
 DOI: 10.1080/00268976.2014.952696

 Q-Chem 4.3.0 for Intel X86 Linux

 Parts of Q-Chem use Armadillo 5.200.1 (Boston Tea Smuggler).
 http://arma.sourceforge.net/

 Q-Chem begins on Mon May  8 13:42:03 2017  

Host: 
0

     Scratch files written to /tmp/ts_solv_wo.qcin//
 Oct1215 13750_ 19228  19214 4150   
 Parallel job on  1  processors
Processing $rem in /programs/x86_64/lib/qchem-4.3.2/config/preferences.
 MEM_TOTAL  2000 

Checking the input file for inconsistencies... 	...done.

--------------------------------------------------------------
User input:
--------------------------------------------------------------

$molecule
READ
$end

$solvent
CavityRadius    30
Dielectric     78.39
$end

$rem
jobtype          TS
exchange         b3lyp
basis            6-31+G(d)
geom_opt_hessian READ
geom_opt_maxcyc  100
SOLVENT_METHOD ONSAGER
$end

--------------------------------------------------------------
 ----------------------------------------------------------------
             Standard Nuclear Orientation (Angstroms)
    I     Atom           X                Y                Z
 ----------------------------------------------------------------
    1      C       1.5750426864    -0.0624824771     0.3009785893
    2      O       1.9863693348     1.0091866468     0.8004079407
    3      O       2.1925934520    -1.1690428613     0.3784780609
    4      C       0.2328656844    -0.3105144621    -0.5605619087
    5      O      -0.4966287956     1.5988931571    -0.7903995637
    6      C       0.4037747583    -1.0169127363    -1.5932189508
    7      O      -1.1631249818    -0.3162121521    -0.0123998923
    8      C      -2.1041090166    -0.8506195450    -0.6727481222
    9      H      -1.5046376535    -0.0098824553     1.4613484620
   10      H      -1.3728827822     1.0326350364     1.7700245597
   11      H      -0.8976291479    -0.6346316153     2.1335048137
   12      C      -2.5627379718    -0.2901228590     1.5744812711
   13      H      -0.9223246782     1.5594157766    -1.7924617135
   14      H       0.4660101394     2.1154548419    -0.7540085407
   15      H      -1.1912247972     2.1383225673    -0.1206852172
 ----------------------------------------------------------------
 Molecular Point Group                 C1    NOp =  1
 Largest Abelian Subgroup              C1    NOp =  1
 Nuclear Repulsion Energy =   438.0882340987 hartrees
 There are       35 alpha and       35 beta electrons
 Requested basis set is 6-31+G(d)
 There are 57 shells and 183 basis functions

 Total QAlloc Memory Limit   2000 MB
 Mega-Array Size        61 MB
 MEM_STATIC part        62 MB
 A cutoff of  1.0D-11 yielded   1525 shell pairs
 There are     16282 function pairs
 
[...]
 C         -0.025 -0.048  0.093   -0.018 -0.008 -0.151    0.035  0.066 -0.130
 H         -0.132 -0.010  0.020   -0.162 -0.185  0.033    0.205  0.045 -0.073
 H          0.019 -0.115 -0.012    0.101  0.159  0.055   -0.025  0.165 -0.026
 H          0.210 -0.297 -0.260    0.114 -0.152  0.786   -0.430  0.542  0.443
 C         -0.010 -0.043 -0.006    0.036  0.033 -0.063    0.023  0.059 -0.030
 H          0.371  0.176  0.048   -0.181  0.077  0.026    0.187 -0.079  0.119
 H         -0.081  0.297 -0.039    0.003 -0.033 -0.018   -0.021  0.071 -0.013
 H          0.102 -0.099  0.005    0.002  0.281 -0.161    0.046 -0.202  0.153
 TransDip  -0.094  0.202 -0.027   -0.100  0.135 -0.132    0.212 -0.426 -0.066

 Mode:                13                     14                     15
 Frequency:       217.20                 225.33                 272.67
 Force Cnst:      0.1472                 0.3410                 0.0784
 Red. Mass:       5.2954                11.3988                 1.7908
 IR Active:          YES                    YES                    YES
 IR Intens:       23.949                  7.862                 46.516
 Raman Active:       YES                    YES                    YES
               X      Y      Z        X      Y      Z        X      Y      Z
 C         -0.044 -0.040 -0.006    0.147 -0.026 -0.137    0.003 -0.023  0.006
 O         -0.227 -0.183 -0.039   -0.115  0.048  0.114   -0.023 -0.072 -0.031
 O         -0.015  0.156 -0.092   -0.142  0.033  0.132   -0.008  0.057 -0.007
 C          0.072 -0.134  0.115    0.543 -0.109 -0.515    0.053 -0.057  0.046
 O          0.298  0.089  0.133    0.012 -0.037  0.002   -0.017  0.158 -0.045
 C         -0.069  0.038 -0.140   -0.359  0.033  0.326   -0.014 -0.025  0.051
 O         -0.004  0.056  0.001   -0.002  0.042  0.000   -0.004 -0.069  0.014
 C         -0.014 -0.011 -0.008   -0.009 -0.004  0.003    0.004  0.012  0.019
 H         -0.038 -0.060  0.030   -0.024 -0.019  0.003   -0.035  0.064 -0.007
 H          0.015 -0.010  0.046    0.031 -0.014  0.012   -0.048  0.021 -0.061
 H          0.148 -0.138  0.058    0.141 -0.107 -0.022   -0.225  0.121  0.007
 C         -0.023 -0.011  0.016   -0.002 -0.001 -0.007    0.026  0.021 -0.013
 H         -0.184 -0.030  0.266   -0.116 -0.051  0.060    0.369 -0.014 -0.571
 H         -0.150 -0.314 -0.089    0.023 -0.036 -0.022   -0.114 -0.015  0.058
 H          0.316  0.548 -0.096    0.060  0.141 -0.029    0.026 -0.491  0.382
 TransDip  -0.129  0.071 -0.055    0.059  0.020 -0.065    0.083 -0.202  0.000

 Mode:                16                     17                     18
 Frequency:       384.12                 401.95                 527.92
 Force Cnst:      0.1295                 0.1072                 0.2550
 Red. Mass:       1.4896                 1.1263                 1.5529
 IR Active:          YES                    YES                    YES
 IR Intens:      228.343                 91.383                129.598
 Raman Active:       YES                    YES                    YES
               X      Y      Z        X      Y      Z        X      Y      Z
 C         -0.001  0.000  0.000   -0.003  0.009  0.000    0.000 -0.001  0.001
 O         -0.003 -0.001  0.002   -0.022  0.024  0.022    0.003  0.000  0.003
 O          0.004 -0.003 -0.004    0.012 -0.020 -0.007   -0.002  0.002  0.000
 C         -0.005  0.000  0.004   -0.026  0.026 -0.009    0.001 -0.005  0.002
 O         -0.011 -0.002 -0.008   -0.007 -0.041 -0.029   -0.001  0.002  0.002
 C          0.002 -0.005  0.007    0.005  0.004  0.011    0.000 -0.003 -0.003
 O         -0.008  0.053  0.056   -0.001 -0.014 -0.024   -0.011  0.019 -0.075
 C          0.011  0.017 -0.116   -0.003 -0.002  0.033    0.003  0.032  0.156
 H          0.586 -0.141 -0.110   -0.142  0.028  0.028    0.362  0.178 -0.247
 H          0.252  0.012  0.277   -0.055 -0.028 -0.059    0.144 -0.271 -0.077
 H          0.440  0.219 -0.233   -0.103 -0.028  0.043    0.218  0.167  0.743
 C         -0.117 -0.075  0.045    0.013  0.017 -0.006   -0.051 -0.059 -0.099
 H          0.112 -0.050 -0.169   -0.010 -0.127 -0.172    0.028  0.006 -0.011
 H          0.021 -0.009 -0.024    0.165 -0.090 -0.162   -0.009  0.014  0.012
 H          0.173 -0.026  0.266    0.594  0.400  0.573   -0.013 -0.028  0.002
 TransDip   0.184 -0.447  0.012    0.276  0.106  0.080    0.029 -0.349 -0.100

 Mode:                19                     20                     21
 Frequency:       565.01                 603.44                 640.49
 Force Cnst:      1.5464                 1.9181                 0.6695
 Red. Mass:       8.2217                 8.9406                 2.7699
 IR Active:          YES                    YES                    YES
 IR Intens:       13.128                  4.701                 25.187
 Raman Active:       YES                    YES                    YES
               X      Y      Z        X      Y      Z        X      Y      Z
 C         -0.008 -0.116  0.021   -0.128  0.002 -0.160    0.001 -0.001 -0.003
 O          0.235  0.147  0.232    0.018  0.328 -0.052   -0.001  0.005  0.001
 O         -0.025  0.383 -0.129   -0.161 -0.217 -0.117   -0.002 -0.001 -0.002
 C         -0.121 -0.290 -0.034    0.346 -0.286  0.446    0.001 -0.003  0.005
 O         -0.024 -0.042 -0.012   -0.021 -0.011 -0.018    0.000  0.000 -0.001
 C         -0.170 -0.304 -0.127   -0.012  0.091 -0.032    0.000 -0.001 -0.001
 O          0.001 -0.001 -0.002    0.003 -0.005 -0.001   -0.124  0.136  0.001
 C          0.001 -0.004 -0.004    0.004  0.000 -0.002   -0.127 -0.031 -0.016
 H         -0.041 -0.007  0.017   -0.034 -0.001  0.010    0.438 -0.110 -0.018
 H         -0.016  0.004 -0.004   -0.018  0.005 -0.004    0.380 -0.178  0.055
 H         -0.003 -0.013 -0.035    0.011 -0.005 -0.001   -0.673  0.112 -0.043
 C          0.001  0.005  0.004   -0.007  0.007  0.002    0.279 -0.137  0.018
 H          0.184  0.170  0.182    0.069  0.094  0.088   -0.014 -0.007 -0.003
 H          0.323  0.467 -0.023    0.039  0.525 -0.185    0.020 -0.004 -0.020
 H          0.109  0.082  0.103    0.071  0.088  0.056    0.018  0.020  0.013
 TransDip   0.103  0.011  0.053   -0.006  0.060 -0.034    0.159  0.012  0.021

 Mode:                22                     23                     24
 Frequency:       766.76                 795.71                 822.76
 Force Cnst:      3.3258                 0.4401                 0.7331
 Red. Mass:       9.6013                 1.1798                 1.8380
 IR Active:          YES                    YES                    YES
 IR Intens:       54.539                151.310                132.835
 Raman Active:       YES                    YES                    YES
               X      Y      Z        X      Y      Z        X      Y      Z
 C          0.554 -0.138 -0.510   -0.041 -0.023  0.025   -0.002 -0.005  0.000
 O         -0.136  0.008  0.119   -0.014 -0.059  0.017    0.000 -0.003  0.004
 O         -0.149  0.034  0.137   -0.006 -0.007 -0.027   -0.002  0.000 -0.003
 C         -0.223  0.059  0.196    0.026  0.030 -0.011    0.001  0.004  0.000
 O         -0.012  0.010 -0.006   -0.030 -0.007 -0.025   -0.002  0.000 -0.002
 C          0.031  0.014 -0.016    0.012  0.044  0.011    0.001  0.005  0.001
 O          0.001  0.000  0.000   -0.001  0.004 -0.003   -0.001 -0.077  0.003
 C          0.001 -0.005  0.000   -0.001 -0.012  0.000    0.025  0.253 -0.014
 H         -0.004  0.008 -0.002   -0.016  0.006  0.004    0.134 -0.206 -0.010
 H         -0.011  0.018 -0.001   -0.010  0.007 -0.006    0.235 -0.379  0.061
 H          0.023  0.001  0.003    0.012  0.034 -0.003   -0.257 -0.768 -0.056
 C         -0.001  0.001 -0.001    0.004  0.002  0.000   -0.031 -0.038  0.010
 H          0.264  0.224  0.178    0.601  0.534  0.475    0.022  0.038  0.047
 H          0.163 -0.111 -0.190    0.187  0.035 -0.262    0.027 -0.003 -0.030
 H         -0.052 -0.123  0.013    0.042 -0.011  0.080   -0.002  0.000 -0.002
 TransDip   0.199 -0.059 -0.113    0.359 -0.009  0.162   -0.129  0.344  0.033

 Mode:                25                     26                     27
 Frequency:       847.74                 907.00                 997.28
 Force Cnst:      3.1296                 0.5140                 0.6353
 Red. Mass:       7.3913                 1.0604                 1.0842
 IR Active:          YES                    YES                    YES
 IR Intens:       50.653                 79.758                308.217
 Raman Active:       YES                    YES                    YES
               X      Y      Z        X      Y      Z        X      Y      Z
 C         -0.148 -0.139 -0.152    0.019 -0.015 -0.013    0.001 -0.007  0.001
 O          0.209 -0.222  0.274    0.020 -0.017 -0.026    0.001  0.001 -0.003
 O         -0.233  0.019 -0.252   -0.011  0.005  0.009   -0.001  0.000  0.000
 C          0.056  0.181  0.011    0.001  0.005 -0.001    0.000  0.001 -0.001
 O          0.016 -0.003  0.018   -0.006 -0.023 -0.027    0.000 -0.002 -0.004
 C          0.133  0.250  0.097    0.003  0.005 -0.001    0.000  0.002  0.000
 O          0.001  0.002  0.001   -0.003  0.001 -0.001    0.008 -0.008 -0.007
 C         -0.001 -0.005  0.000    0.001  0.003 -0.004   -0.010 -0.014  0.061
 H         -0.001  0.005  0.000   -0.035 -0.015  0.016    0.385 -0.050 -0.139
 H         -0.005  0.009  0.000    0.014 -0.070 -0.011   -0.157  0.793  0.119
 H          0.002  0.019  0.005   -0.004  0.022 -0.004   -0.160 -0.350 -0.008
 C          0.000  0.001  0.000    0.003  0.001  0.004   -0.008 -0.009 -0.050
 H         -0.428 -0.379 -0.330    0.155  0.141  0.149    0.006  0.018  0.027
 H          0.097  0.132  0.238   -0.606  0.263  0.623   -0.043  0.019  0.044
 H         -0.027  0.016 -0.055    0.187  0.226  0.109    0.033  0.036  0.023
 TransDip  -0.168  0.007 -0.154   -0.087  0.040  0.269    0.186  0.514 -0.134

 Mode:                28                     29                     30
 Frequency:      1122.21                1158.95                1405.23
 Force Cnst:      0.8042                 5.3281                 1.4530
 Red. Mass:       1.0838                 6.7328                 1.2489
 IR Active:          YES                    YES                    YES
 IR Intens:      117.839                332.072                271.825
 Raman Active:       YES                    YES                    YES
               X      Y      Z        X      Y      Z        X      Y      Z
 C          0.001 -0.011  0.004   -0.049  0.594 -0.199   -0.028  0.045 -0.052
 O         -0.001  0.003 -0.003    0.093 -0.172  0.135   -0.016 -0.076  0.010
 O          0.000  0.001  0.000   -0.010 -0.070  0.009    0.051  0.004  0.056
 C          0.000  0.002 -0.001    0.023 -0.093  0.051    0.000  0.000  0.002
 O          0.000 -0.001  0.000   -0.021  0.000 -0.020    0.001 -0.007  0.006
 C          0.001  0.002  0.001   -0.077 -0.141 -0.058   -0.004 -0.008 -0.003
 O          0.014 -0.001  0.007    0.000 -0.001  0.000   -0.001  0.000  0.000
 C         -0.003 -0.038 -0.055    0.002 -0.005 -0.004    0.002  0.000  0.000
 H         -0.045  0.900 -0.082    0.006  0.093 -0.013    0.000  0.002  0.000
 H          0.251  0.013  0.198    0.020  0.036  0.028   -0.001  0.005  0.002
 H         -0.123 -0.234  0.034   -0.035 -0.060  0.002   -0.005 -0.009  0.001
 C         -0.023 -0.017  0.033   -0.001 -0.002  0.002    0.000  0.000  0.000
 H         -0.001  0.002  0.003    0.147  0.117  0.125   -0.096 -0.100 -0.080
 H         -0.008  0.010  0.003    0.078 -0.568  0.324   -0.096  0.877 -0.419
 H          0.008  0.007  0.007    0.018  0.022  0.028    0.005  0.039 -0.016
 TransDip   0.146  0.249  0.194   -0.013  0.569 -0.130   -0.220  0.331 -0.348

 Mode:                31                     32                     33
 Frequency:      1683.03                1726.15                1732.03
 Force Cnst:      2.5897                 4.7122                13.6551
 Red. Mass:       1.5517                 2.6842                 7.7257
 IR Active:          YES                    YES                    YES
 IR Intens:      503.700                400.352                475.437
 Raman Active:       YES                    YES                    YES
               X      Y      Z        X      Y      Z        X      Y      Z
 C          0.024  0.008  0.023    0.062  0.028  0.061    0.416  0.187  0.396
 O         -0.003  0.000 -0.001   -0.004 -0.008 -0.003   -0.032 -0.049 -0.015
 O         -0.015 -0.005 -0.015   -0.038 -0.014 -0.038   -0.253 -0.096 -0.250
 C         -0.001  0.000  0.002    0.001  0.005 -0.002    0.008  0.041  0.006
 O         -0.029 -0.023  0.057    0.027  0.022 -0.051   -0.001 -0.005  0.012
 C         -0.002 -0.004  0.001   -0.003 -0.009 -0.005   -0.038 -0.076 -0.027
 O         -0.114  0.015 -0.004   -0.206  0.025 -0.003    0.121 -0.015  0.002
 C          0.152 -0.012  0.003    0.274 -0.024  0.005   -0.160  0.014 -0.003
 H         -0.043  0.025 -0.005   -0.065  0.047 -0.010    0.037 -0.026  0.005
 H         -0.041  0.035  0.006   -0.062  0.049  0.006    0.036 -0.028 -0.004
 H          0.010 -0.076 -0.007    0.032 -0.083 -0.011   -0.016  0.044  0.004
 C          0.007 -0.005  0.001    0.008 -0.010  0.002   -0.004  0.005 -0.001
 H          0.539 -0.095 -0.502   -0.515  0.068  0.450    0.006 -0.079 -0.104
 H          0.022 -0.003 -0.024   -0.031  0.108 -0.025   -0.063  0.574 -0.276
 H         -0.100  0.473 -0.400    0.088 -0.460  0.374   -0.011  0.086 -0.069
 TransDip   0.651 -0.293 -0.085    0.496 -0.345  0.213    0.327  0.449  0.423

 Mode:                34                     35                     36
 Frequency:      2064.95                3067.49                3236.45
 Force Cnst:     29.9177                 5.7366                 6.9408
 Red. Mass:      11.9086                 1.0348                 1.1247
 IR Active:          YES                    YES                    YES
 IR Intens:      280.553                 56.619                 49.512
 Raman Active:       YES                    YES                    YES
               X      Y      Z        X      Y      Z        X      Y      Z
 C         -0.076 -0.137 -0.048    0.000  0.000  0.000    0.000  0.000  0.000
 O          0.003 -0.006  0.005    0.000  0.000  0.000    0.000  0.000  0.000
 O          0.004  0.001  0.004    0.000  0.000  0.000    0.000  0.000  0.000
 C          0.328  0.659  0.231    0.000  0.000  0.000    0.000  0.000  0.000
 O          0.003  0.000  0.003    0.000  0.000  0.000    0.000  0.000  0.000
 C         -0.266 -0.508 -0.201    0.000  0.000  0.000    0.000  0.000  0.000
 O         -0.005  0.001  0.000   -0.004  0.000  0.000    0.000  0.000 -0.001
 C          0.006  0.000  0.000    0.006  0.000  0.000    0.000  0.000  0.002
 H          0.000  0.000  0.001    0.155  0.086  0.693    0.211  0.114  0.651
 H          0.000 -0.001 -0.002    0.337  0.188 -0.581   -0.396 -0.218  0.551
 H          0.004  0.007  0.001    0.000 -0.007  0.007    0.001 -0.002 -0.004
 C          0.000  0.000  0.000   -0.042 -0.023 -0.010    0.015  0.009 -0.101
 H         -0.021 -0.006 -0.027    0.002 -0.001  0.000   -0.001  0.003 -0.001
 H          0.033 -0.059  0.050    0.000  0.000  0.000   -0.004 -0.002 -0.003
 H         -0.003 -0.007 -0.003    0.000  0.002 -0.002   -0.001 -0.001  0.002
 TransDip  -0.263 -0.432 -0.177   -0.007  0.241  0.013   -0.037 -0.068  0.212

 Mode:                37                     38                     39
 Frequency:      3340.87                3437.34                3855.40
 Force Cnst:      7.0309                 7.3993                 9.3357
 Red. Mass:       1.0692                 1.0629                 1.0660
 IR Active:          YES                    YES                    YES
 IR Intens:      134.442               1002.711                145.173
 Raman Active:       YES                    YES                    YES
               X      Y      Z        X      Y      Z        X      Y      Z
 C         -0.001  0.005 -0.002    0.001  0.001  0.001    0.000  0.000  0.000
 O         -0.040 -0.018 -0.031    0.026  0.010  0.021    0.001  0.000  0.001
 O          0.001 -0.001  0.001   -0.001  0.000 -0.001    0.000  0.000  0.000
 C         -0.001 -0.002 -0.001    0.000  0.000  0.000    0.000  0.000  0.000
 O          0.010 -0.027  0.019    0.014 -0.040  0.025   -0.049  0.024  0.030
 C          0.000  0.001  0.000   -0.001  0.000  0.000    0.000  0.000  0.000
 O          0.000  0.000  0.000    0.000  0.000  0.000    0.000  0.000  0.000
 C          0.000  0.000  0.000    0.000  0.000  0.000    0.000  0.000  0.000
 H          0.001  0.000  0.002   -0.001 -0.001 -0.003    0.001  0.000  0.001
 H         -0.001  0.000  0.001    0.003  0.001 -0.004   -0.002  0.000  0.001
 H          0.000 -0.001  0.000   -0.001  0.000  0.001    0.001 -0.001 -0.001
 C          0.000  0.000  0.000    0.000  0.000  0.001    0.000  0.000  0.000
 H         -0.191  0.446 -0.264   -0.269  0.681 -0.385    0.003 -0.055  0.054
 H          0.614  0.264  0.488   -0.416 -0.174 -0.323   -0.017 -0.007 -0.011
 H          0.056 -0.032 -0.025    0.049 -0.036 -0.020    0.776 -0.325 -0.531
 TransDip   0.227  0.274  0.105   -0.803  0.330 -0.525    0.345 -0.110 -0.133

 STANDARD THERMODYNAMIC QUANTITIES AT   298.15 K  AND     1.00 ATM

   This Molecule has  3 Imaginary Frequencies
   Zero point vibrational energy:       53.919 kcal/mol

   Atom    1 Element C  Has Mass   12.00000
   Atom    2 Element O  Has Mass   15.99491
   Atom    3 Element O  Has Mass   15.99491
   Atom    4 Element C  Has Mass   12.00000
   Atom    5 Element O  Has Mass   15.99491
   Atom    6 Element C  Has Mass   12.00000
   Atom    7 Element O  Has Mass   15.99491
   Atom    8 Element C  Has Mass   12.00000
   Atom    9 Element H  Has Mass    1.00783
   Atom   10 Element H  Has Mass    1.00783
   Atom   11 Element H  Has Mass    1.00783
   Atom   12 Element C  Has Mass   12.00000
   Atom   13 Element H  Has Mass    1.00783
   Atom   14 Element H  Has Mass    1.00783
   Atom   15 Element H  Has Mass    1.00783
   Molecular Mass:   130.026620 amu
   Principal axes and moments of inertia in amu*Bohr^2:
                             1           2           3
    Eigenvalues --      795.50975  3441.40795  3556.20805
          X               0.99974    -0.02143    -0.00813
          Y               0.02173     0.99905     0.03784
          Z               0.00731    -0.03801     0.99925
   Rotational Symmetry Number is   1
   The Molecule is an Asymmetric Top
   Translational Enthalpy:        0.889 kcal/mol
   Rotational Enthalpy:           0.889 kcal/mol
   Vibrational Enthalpy:         60.142 kcal/mol
   gas constant (RT):             0.592 kcal/mol
   Translational Entropy:        40.501  cal/mol.K
   Rotational Entropy:           30.655  cal/mol.K
   Vibrational Entropy:          46.636  cal/mol.K

   Total Enthalpy:               62.512 kcal/mol
   Total Entropy:               117.791  cal/mol.K
Archival summary:
1\1\bt2600-16\FREQ\ProcedureUnspecified\6-31+G*\456(2-,1)\emavera\MonMay819:59:412017MonMay819:59:412017\0\\#,FREQ,ProcedureUnspecified,6-31+G*,\\-2,1\O\H,1,0.990946\C,1,1.37766,2,110.803\O,3,1.22721,1,117.779,2,173.678,0\C,3,1.43558,1,115.484,2,-7.64269,0\C,5,1.2501,3,170.783,1,-11.5646,0\O,2,1.8229,1,169.826,3,-37.1064,0\H,7,0.965092,2,104.286,1,-61.5724,0\H,7,0.990488,2,81.4644,1,39.3577,0\O,8,2.50158,7,128.47,2,102.419,0\C,10,1.20427,8,115.391,7,138.089,0\C,11,1.65255,10,130.742,8,47.7637,0\H,12,1.09124,11,90.1943,10,-48.8186,0\H,12,1.09151,11,84.4125,10,70.6585,0\H,13,1.68459,12,83.4948,11,123.425,0\\\@

 Total job time:  2136.75s(wall), 2136.91s(cpu) 
 Mon May  8 19:59:41 2017

        *************************************************************
        *                                                           *
        *  Thank you very much for using Q-Chem.  Have a nice day.  *
        *                                                           *
        *************************************************************


0 sent ACK to 0 
now end server 0 ... 
cleanup process ... done
