
Running Job 1 of 1 molden_irc_reac_take_two.qcin
qchem molden_irc_reac_take_two.qcin_52128.0 /tmp/molden_irc_reac_take_two.qcin/ 1
/programs/x86_64/lib/qchem-4.3.2/bin/mpi/mpirun_qchem -machinefile /var/spool/torque/aux//123226.vali -np 1 /programs/x86_64/lib/qchem-4.3.2/exe/qcprog.exe molden_irc_reac_take_two.qcin_52128.0 /tmp/molden_irc_reac_take_two.qcin/

Process 0 of 1 is on bt2600-16.csail.mit.edu - thread support 0
initial socket setup ...start
initial socket setup ...done 
now start server 0 ... 

cmd = ssh thor /programs/x86_64/lib/qchem-4.3.2/bin/get_hostid 1903154921 > /tmp/molden_irc_reac_take_two.qcin/lic.dat
                  Welcome to Q-Chem
     A Quantum Leap Into The Future Of Chemistry


 Q-Chem 4.3, Q-Chem, Inc., Pleasanton, CA (2015)

 Y. Shao,  Z. Gan,  E. Epifanovsky,  A. T. B. Gilbert,  M. Wormit,  
 J. Kussmann,  A. W. Lange,  A. Behn,  J. Deng,  X. Feng,  D. Ghosh,  
 M. Goldey,  P. R. Horn,  L. D. Jacobson,  I. Kaliman,  R. Z. Khaliullin,  
 T. Kus,  A. Landau,  J. Liu,  E. I. Proynov,  Y. M. Rhee,  R. M. Richard,  
 M. A. Rohrdanz,  R. P. Steele,  E. J. Sundstrom,  H. L. Woodcock III,  
 P. M. Zimmerman,  D. Zuev,  B. Albrecht,  E. Alguire,  B. Austin,  
 S. A. Baeppler,  G. J. O. Beran,  Y. A. Bernard,  E. Berquist,  
 K. Brandhorst,  K. B. Bravaya,  S. T. Brown,  D. Casanova,  C.-M. Chang,  
 Y. Chen,  S. H. Chien,  K. D. Closser,  D. L. Crittenden,  M. Diedenhofen,  
 R. A. DiStasio Jr.,  H. Do,  A. D. Dutoi,  R. G. Edgar,  P.-T. Fang,  
 S. Fatehi,  Q. Feng,  L. Fusti-Molnar,  A. Ghysels,  
 A. Golubeva-Zadorozhnaya,  J. Gomes,  A. Gunina,  M. W. D. Hanson-Heine,  
 P. H. P. Harbach,  A. W. Hauser,  E. G. Hohenstein,  Z. C. Holden,  K. Hui,  
 T.-C. Jagau,  H. Ji,  B. Kaduk,  K. Khistyaev,  Jaehoon Kim,  Jihan Kim,  
 R. A. King,  P. Klunzinger,  D. Kosenkov,  T. Kowalczyk,  C. M. Krauter,  
 K. U. Lao,  A. Laurent,  K. V. Lawler,  S. Lehtola,  S. V. Levchenko,  
 C. Y. Lin,  Y.-S. Lin,  F. Liu,  E. Livshits,  R. C. Lochan,  A. Luenser,  
 P. Manohar,  S. F. Manzer,  S.-P. Mao,  N. Mardirossian,  A. V. Marenich,  
 L. A. Martinez-Martinez,  S. A. Maurer,  N. J. Mayhall,  K. Nanda,  
 C. M. Oana,  R. Olivares-Amaya,  D. P. O'Neill,  J. A. Parkhill,  
 T. M. Perrine,  R. Peverati,  P. A. Pieniazek,  F. Plasser,  A. Prociuk,  
 D. R. Rehn,  E. Rosta,  N. J. Russ,  N. Sergueev,  S. M. Sharada,  
 S. Sharma,  D. W. Small,  A. Sodt,  T. Stauch,  T. Stein,  D. Stuck,  
 Y.-C. Su,  A. J. W. Thom,  T. Tsuchimochi,  L. Vogt,  O. Vydrov,  T. Wang,  
 M. A. Watson,  J. Wenzel,  A. White,  C. F. Williams,  V. Vanovschi,  
 S. Yeganeh,  S. R. Yost,  Z.-Q. You,  I. Y. Zhang,  X. Zhang,  Y. Zhao,  
 B. R. Brooks,  G. K. L. Chan,  D. M. Chipman,  C. J. Cramer,  
 W. A. Goddard III,  M. S. Gordon,  W. J. Hehre,  A. Klamt,  
 H. F. Schaefer III,  M. W. Schmidt,  C. D. Sherrill,  D. G. Truhlar,  
 A. Warshel,  X. Xu,  A. Aspuru-Guzik,  R. Baer,  A. T. Bell,  N. A. Besley,  
 J.-D. Chai,  A. Dreuw,  B. D. Dunietz,  T. R. Furlani,  S. R. Gwaltney,  
 C.-P. Hsu,  Y. Jung,  J. Kong,  D. S. Lambrecht,  W. Liang,  C. Ochsenfeld,  
 V. A. Rassolov,  L. V. Slipchenko,  J. E. Subotnik,  T. Van Voorhis,  
 J. M. Herbert,  A. I. Krylov,  P. M. W. Gill,  M. Head-Gordon

 Contributors to earlier versions of Q-Chem not listed above: 
 R. D. Adamson,  J. Baker,  E. F. C. Byrd,  A. K. Chakraborty,  C.-L. Cheng,  
 H. Dachsel,  R. J. Doerksen,  G. Hawkins,  A. Heyden,  S. Hirata,  
 G. Kedziora,  F. J. Keil,  C. Kelley,  P. P. Korambath,  W. Kurlancheek,  
 A. M. Lee,  M. S. Lee,  D. Liotard,  I. Lotan,  P. E. Maslen,  N. Nair,  
 D. Neuhauser,  R. Olson,  B. Peters,  J. Ritchie,  N. E. Schultz,  
 N. Shenvi,  A. C. Simmonett,  K. S. Thanthiriwatte,  Q. Wu,  W. Zhang

 Please cite Q-Chem as follows:
 Y. Shao et al., Mol. Phys. 113, 184-215 (2015)
 DOI: 10.1080/00268976.2014.952696

 Q-Chem 4.3.0 for Intel X86 Linux

 Parts of Q-Chem use Armadillo 5.200.1 (Boston Tea Smuggler).
 http://arma.sourceforge.net/

 Q-Chem begins on Wed Jun 28 12:24:22 2017  

Host: 
0

     Scratch files written to /tmp/molden_irc_reac_take_two.qcin//
 Oct1215 13750_ 19228  19214 4150   
 Parallel job on  1  processors
Processing $rem in /programs/x86_64/lib/qchem-4.3.2/config/preferences.
 MEM_TOTAL  2000 

Checking the input file for inconsistencies... 	...done.

--------------------------------------------------------------
User input:
--------------------------------------------------------------
$rem
EXCHANGE         B3LYP
BASIS            6-31G(d)
PRINT_ORBITALS   true
MOLDEN_FORMAT    true
$end

$molecule
-2 1
C       -0.03200       -0.63000       -0.15000
C       -1.21300        0.38800       -0.24700
C       -1.15500        1.63200        0.66300
C        1.34500        0.18700        0.00600
C       -0.42900       -1.29600        1.25700
O        0.03000       -1.55100       -1.11100
O       -2.24000        0.21500       -0.90300
O        2.22900       -0.28600        0.78000
O        1.45900        1.23400       -0.70500
H       -0.25800        1.65400        1.28700
H       -1.14300        2.52100        0.02100
H       -2.05900        1.66200        1.29300
H       -1.19400       -2.04800        1.01900
H        0.47600       -1.76600        1.65200
H       -0.82800       -0.60400        2.02400
$end
--------------------------------------------------------------
 ----------------------------------------------------------------
             Standard Nuclear Orientation (Angstroms)
    I     Atom           X                Y                Z
 ----------------------------------------------------------------
    1      C       0.0792971944    -0.6221703204    -0.1745315951
    2      C      -1.2519222749     0.1928065146    -0.1100220381
    3      C      -1.2830759180     1.4306652350     0.8096166078
    4      C       1.3169231772     0.4055511287    -0.1695768226
    5      C      -0.0325183182    -1.3422166933     1.2571962114
    6      O       0.1702853535    -1.5219856998    -1.1531323503
    7      O      -2.3101255729    -0.1434366210    -0.6411908755
    8      O       2.3524305465     0.0813028031     0.4837596233
    9      O       1.1752160861     1.4567198286    -0.8693549765
   10      H      -0.3320261909     1.5969607383     1.3217876947
   11      H      -1.4911232926     2.3095529687     0.1876024268
   12      H      -2.0969993068     1.3155329989     1.5439797913
   13      H      -0.6909014274    -2.2075283424     1.0986388667
   14      H       0.9770596410    -1.6604214771     1.5318743135
   15      H      -0.4406838922    -0.7227145614     2.0793713587
 ----------------------------------------------------------------
 Molecular Point Group                 C1    NOp =  1
 Largest Abelian Subgroup              C1    NOp =  1
 Nuclear Repulsion Energy =   452.3854362912 hartrees
 There are       35 alpha and       35 beta electrons
 Requested basis set is 6-31G(d)
 There are 48 shells and 147 basis functions

 Total QAlloc Memory Limit   2000 MB
 Mega-Array Size        61 MB
 MEM_STATIC part        62 MB

                       Distance Matrix (Angstroms)
             C (  1)   C (  2)   C (  3)   C (  4)   C (  5)   O (  6)
   C (  2)  1.562208
   C (  3)  2.653063  1.542401
   C (  4)  1.608712  2.578328  2.961364
   C (  5)  1.606491  2.390090  3.074589  2.628948
   O (  6)  1.332519  2.459932  3.831813  2.448991  2.425516
   O (  7)  2.481189  1.230851  2.374336  3.698552  3.198194  2.883560
   O (  8)  2.468878  3.654637  3.891512  1.266594  2.883157  3.164128
   O (  9)  2.450633  2.839906  2.977050  1.270719  3.716838  3.156438
   H ( 10)  2.707896  2.206340  1.092918  2.522431  2.955104  4.013150
   H ( 11)  3.345499  2.150910  1.096644  3.411440  4.075166  4.386176
   H ( 12)  3.382934  2.170344  1.102278  3.926730  3.377567  4.523992
   H ( 13)  2.174288  2.745399  3.697385  3.530993  1.098805  2.506409
   H ( 14)  2.189923  3.331462  3.896753  2.697904  1.093595  2.807011
   H ( 15)  2.315290  2.507933  2.637981  3.069191  1.107409  3.385439
             O (  7)   O (  8)   O (  9)   H ( 10)   H ( 11)   H ( 12)
   O (  8)  4.801609
   O (  9)  3.841896  2.260205
   H ( 10)  3.285597  3.194655  2.663185
   H ( 11)  2.715662  4.452608  2.992298  1.771347
   H ( 12)  2.636093  4.737596  4.068355  1.801028  1.787434
   H ( 13)  3.147915  3.857291  4.558740  3.827888  4.677004  3.819346
   H ( 14)  4.222445  2.454342  3.939764  3.516871  4.864123  4.278585
   H ( 15)  3.351393  3.315706  4.007001  2.442669  3.725166  2.680388
             H ( 13)   H ( 14)
   H ( 14)  1.808069
   H ( 15)  1.796974  1.785789
 
 A cutoff of  1.0D-08 yielded   1007 shell pairs
 There are     10063 function pairs
 
 -------------------------------------------------------
 OpenMP Integral Computing Module                       
 Release: version 1.0, May 2013, Q-Chem Inc. Pittsburgh 
 -------------------------------------------------------
 Integral Job Info:
 Integral job number is                      11
 Integral operator is                         1
 short-range coefficients                     0
 long-range coefficients              100000000
 Omega coefficients                           0
 if combine SR and LR in K                    0
 Integral screening is                        0
 Integral computing path is                   2
 max size of driver memory is            800000
 size of driver memory is                593474
 size of scratch memory is              2260544
 max col of scratch BK array               1296
 max len of scratch array in speh3          155
 max len of scratch index in speh4           18
 max int batch size is                      520
 min int batch size is                       52
 fixed nKL is                                52
 max L of basis functions is                  2
 order of int derivative is                   0
 number of shells is                         48
 number of basis is                         147
 number of cartesian basis is               147
 number of contracted shell pairs          1007
 number of primitive shell pairs           3776
 maxK2 (contraction) of shell pair           36
 max number of K2 of shell pair               1
 max number of CS2 of shell pair            109
 max number of PS2 of shell pair            594
 mem total for path MDJ                   36808
 -------------------------------------------------------
 Smallest overlap matrix eigenvalue = 2.16E-03

 Scale SEOQF with 1.000000e-01/1.000000e-01/1.000000e-01

 Standard Electronic Orientation quadrupole field applied
 Nucleus-field energy     =     0.0000000055 hartrees
 Guess from superposition of atomic densities
 Warning:  Energy on first SCF cycle will be non-variational
 A restricted hybrid HF-DFT SCF calculation will be
 performed using Pulay DIIS extrapolation
 Exchange:     0.2000 Hartree-Fock + 0.0800 Slater + 0.7200 B88
 Correlation:  0.1900 VWN1RPA + 0.8100 LYP
 Using SG-1 standard quadrature grid
 SCF converges when DIIS error is below 1.0E-05
 CPU 0.00 s  wall 0.00 s
 Inaccurate integrated density:
   Number of electrons =    70
   Numerical integral  =    68.000552060744
   Relative error      =    -2.8563541989 %
 CPU 3.53 s  wall 3.53 s
 ---------------------------------------
  Cycle       Energy         DIIS Error
 ---------------------------------------
    1    -496.1603517557      6.02E-02
 CPU 0.00 s  wall 0.00 s
 CPU 3.02 s  wall 3.02 s
    2    -494.4950056802      1.36E-02
 CPU 0.00 s  wall 0.00 s
 CPU 3.03 s  wall 3.03 s
    3    -491.5140322830      3.23E-02
 CPU 0.00 s  wall 0.00 s
 CPU 3.01 s  wall 3.01 s
    4    -494.6092477424      1.11E-02
 CPU 0.00 s  wall 0.00 s
 CPU 2.97 s  wall 2.97 s
    5    -494.8971493226      1.76E-03
 CPU 0.00 s  wall 0.00 s
 CPU 2.93 s  wall 2.93 s
    6    -494.8977974899      2.00E-03
 CPU 0.00 s  wall 0.00 s
 CPU 2.89 s  wall 2.89 s
    7    -494.9063832031      4.92E-04
 CPU 0.00 s  wall 0.00 s
 CPU 2.78 s  wall 2.78 s
    8    -494.9068020702      2.27E-04
 CPU 0.00 s  wall 0.00 s
 CPU 2.72 s  wall 2.72 s
    9    -494.9069136881      5.24E-05
 CPU 0.00 s  wall 0.00 s
 CPU 2.56 s  wall 2.56 s
   10    -494.9069178731      2.23E-05
 CPU 0.00 s  wall 0.00 s
 CPU 2.34 s  wall 2.34 s
   11    -494.9069186946      6.86E-06 Convergence criterion met
 ---------------------------------------
 SCF time:  CPU 102.29 s  wall 95.01 s
 SCF   energy in the final basis set = -494.9069186946
 Total energy in the final basis set = -494.9069186946
 
 --------------------------------------------------------------
 
                    Orbital Energies (a.u.)
 --------------------------------------------------------------
 
 Alpha MOs
 -- Occupied --
-18.801 -18.712 -18.709 -18.653  -9.928  -9.890  -9.886  -9.858
 -9.844  -0.694  -0.636  -0.548  -0.537  -0.431  -0.372  -0.273
 -0.184  -0.142  -0.133  -0.113  -0.093  -0.082  -0.074  -0.048
 -0.033  -0.020  -0.007  -0.001   0.035   0.085   0.119   0.128
  0.147   0.190   0.204
 -- Virtual --
  0.322   0.385   0.427   0.446   0.451   0.465   0.479   0.500
  0.531   0.559   0.606   0.638   0.668   0.728   0.734   0.783
  0.882   0.886   0.896   0.919   0.934   0.964   0.984   0.989
  1.018   1.031   1.045   1.074   1.089   1.126   1.141   1.151
  1.175   1.188   1.202   1.218   1.220   1.258   1.261   1.283
  1.314   1.334   1.349   1.403   1.418   1.431   1.445   1.483
  1.504   1.518   1.534   1.622   1.656   1.704   1.760   1.830
  1.865   1.873   1.932   1.965   2.022   2.050   2.073   2.100
  2.111   2.144   2.176   2.186   2.224   2.242   2.251   2.271
  2.290   2.339   2.346   2.371   2.396   2.418   2.448   2.459
  2.494   2.528   2.545   2.586   2.616   2.660   2.688   2.706
  2.724   2.818   2.863   2.938   2.990   3.017   3.063   3.128
  3.204   3.267   3.290   3.334   3.361   3.422   3.503   4.156
  4.316   4.429   4.581   4.602   4.703   4.729   4.893   5.090
 --------------------------------------------------------------
 

                        RESTRICTED (RHF) MOLECULAR ORBITAL COEFFICIENTS
                         1         2         3         4         5         6
 eigenvalues:        -18.801   -18.712   -18.709   -18.653    -9.928    -9.890
   1  C 1   s        0.00002   0.00003   0.00001  -0.00002   0.00123   0.00191
   2  C 1   s        0.00004   0.00017   0.00011   0.00036   0.00009  -0.00008
   3  C 1   px       0.00002  -0.00001   0.00005   0.00002  -0.00008  -0.00007
   4  C 1   py      -0.00001   0.00005   0.00000  -0.00021  -0.00002  -0.00003
   5  C 1   pz       0.00004  -0.00003   0.00003  -0.00025  -0.00003   0.00009
   6  C 1   s       -0.00023  -0.00142  -0.00064  -0.00141   0.00193   0.00370
   7  C 1   px      -0.00013   0.00021  -0.00140   0.00020   0.00000   0.00210
   8  C 1   py      -0.00101  -0.00049   0.00059   0.00221   0.00273   0.00084
   9  C 1   pz      -0.00150   0.00152  -0.00014   0.00242   0.00133  -0.00139
  10  C 1   dxx      0.00005   0.00002  -0.00001   0.00001  -0.00027  -0.00035
  11  C 1   dxy      0.00000  -0.00002  -0.00005   0.00003   0.00009  -0.00009
  12  C 1   dyy      0.00005  -0.00003   0.00000  -0.00013  -0.00014  -0.00024
  13  C 1   dxz      0.00001   0.00001   0.00000   0.00001  -0.00002   0.00000
  14  C 1   dyz      0.00004  -0.00003  -0.00003  -0.00019   0.00001   0.00006
  15  C 1   dzz      0.00006   0.00003   0.00001  -0.00018  -0.00018  -0.00019
  16  C 2   s       -0.00002   0.00002   0.00001   0.00001   0.99305   0.00004
  17  C 2   s        0.00038   0.00007   0.00002   0.00009   0.04911  -0.00022
  18  C 2   px      -0.00005   0.00002   0.00004  -0.00002  -0.00123  -0.00009
  19  C 2   py      -0.00006   0.00003   0.00003   0.00000   0.00014   0.00000
  20  C 2   pz      -0.00002  -0.00001  -0.00004  -0.00004  -0.00004   0.00000
  21  C 2   s       -0.00282   0.00040  -0.00074   0.00022  -0.01139  -0.00044
  22  C 2   px       0.00371  -0.00029  -0.00027  -0.00090  -0.00454   0.00171
  23  C 2   py       0.00184  -0.00074   0.00059  -0.00030  -0.00270  -0.00006
  24  C 2   pz       0.00235  -0.00062   0.00041  -0.00055  -0.00426   0.00065
  25  C 2   dxx     -0.00066   0.00003   0.00004   0.00001  -0.00819  -0.00008
  26  C 2   dxy     -0.00022  -0.00002   0.00004   0.00003   0.00033  -0.00001
  27  C 2   dyy     -0.00011   0.00003   0.00004   0.00002  -0.00908  -0.00008
  28  C 2   dxz     -0.00033   0.00000   0.00000  -0.00001   0.00059  -0.00005
  29  C 2   dyz     -0.00010   0.00003  -0.00002   0.00000   0.00023  -0.00004
  30  C 2   dzz     -0.00021   0.00005   0.00004   0.00001  -0.00895  -0.00017
  31  C 3   s        0.00003   0.00001   0.00002   0.00002   0.00224  -0.00045
  32  C 3   s        0.00020   0.00004   0.00005   0.00008  -0.00018  -0.00013
  33  C 3   px      -0.00006   0.00003   0.00006   0.00002   0.00005  -0.00011
  34  C 3   py       0.00005   0.00000   0.00001  -0.00005   0.00010   0.00004
  35  C 3   pz       0.00002  -0.00004  -0.00005  -0.00001   0.00007   0.00015
  36  C 3   s       -0.00154   0.00019  -0.00045  -0.00011   0.00583  -0.00012
  37  C 3   px      -0.00049  -0.00020  -0.00018   0.00002   0.00107  -0.00007
  38  C 3   py       0.00046  -0.00027   0.00010   0.00011  -0.00233  -0.00007
  39  C 3   pz       0.00024   0.00000   0.00025   0.00000  -0.00108  -0.00096
  40  C 3   dxx     -0.00002   0.00001   0.00006   0.00003  -0.00012  -0.00006
  41  C 3   dxy      0.00004   0.00000  -0.00001   0.00001  -0.00011   0.00002
  42  C 3   dyy     -0.00002   0.00003   0.00002   0.00004  -0.00035  -0.00003
  43  C 3   dxz      0.00001  -0.00001  -0.00004  -0.00001  -0.00008   0.00004
  44  C 3   dyz     -0.00005   0.00000   0.00000  -0.00002  -0.00024   0.00005
  45  C 3   dzz      0.00001   0.00003   0.00004   0.00005  -0.00035  -0.00005
  46  C 4   s        0.00003  -0.00001  -0.00001   0.00002  -0.00016   0.99303
  47  C 4   s        0.00011   0.00046   0.00045   0.00014  -0.00023   0.04812
  48  C 4   px      -0.00005   0.00015   0.00000  -0.00002   0.00011   0.00040
  49  C 4   py      -0.00001  -0.00004   0.00013  -0.00006   0.00002   0.00039
  50  C 4   pz       0.00002   0.00007  -0.00011  -0.00005   0.00000   0.00003
  51  C 4   s       -0.00007  -0.00259  -0.00232  -0.00145  -0.00081  -0.00781
  52  C 4   px       0.00056  -0.00348   0.00039   0.00025  -0.00089   0.00402
  53  C 4   py      -0.00048   0.00116  -0.00342   0.00038   0.00102   0.00225
  54  C 4   pz       0.00064  -0.00243   0.00212  -0.00040  -0.00102   0.00039
  55  C 4   dxx      0.00004  -0.00042  -0.00006  -0.00004  -0.00011  -0.00858
  56  C 4   dxy      0.00001   0.00016   0.00008  -0.00001  -0.00002  -0.00032
  57  C 4   dyy      0.00003  -0.00006  -0.00038   0.00001  -0.00007  -0.00863
  58  C 4   dxz     -0.00002  -0.00025  -0.00003   0.00000  -0.00006   0.00050
  59  C 4   dyz     -0.00002   0.00010   0.00029   0.00004   0.00002  -0.00065
  60  C 4   dzz      0.00007  -0.00020  -0.00021   0.00001  -0.00017  -0.00877
  61  C 5   s       -0.00001   0.00000   0.00002   0.00002  -0.00013  -0.00013
  62  C 5   s       -0.00005   0.00000   0.00007   0.00015  -0.00049  -0.00025
  63  C 5   px       0.00005   0.00000   0.00004   0.00003   0.00012  -0.00007
  64  C 5   py       0.00002   0.00002   0.00005  -0.00003  -0.00007  -0.00013
  65  C 5   pz      -0.00001  -0.00001  -0.00002  -0.00002   0.00008   0.00002
  66  C 5   s        0.00056  -0.00030  -0.00003  -0.00055   0.00150   0.00116
  67  C 5   px      -0.00012   0.00015  -0.00008  -0.00023  -0.00139   0.00031
  68  C 5   py       0.00021  -0.00023  -0.00040  -0.00042   0.00039   0.00082
  69  C 5   pz      -0.00009   0.00036  -0.00019   0.00006  -0.00088  -0.00007
  70  C 5   dxx      0.00000   0.00002   0.00002   0.00004  -0.00016  -0.00008
  71  C 5   dxy      0.00003   0.00001  -0.00001   0.00000  -0.00013   0.00005
  72  C 5   dyy     -0.00001   0.00002   0.00001  -0.00005  -0.00005  -0.00010
  73  C 5   dxz      0.00000   0.00000  -0.00001   0.00002   0.00008   0.00000
  74  C 5   dyz     -0.00002   0.00002   0.00003   0.00003  -0.00003  -0.00005
  75  C 5   dzz     -0.00002  -0.00002   0.00006  -0.00002  -0.00005  -0.00008
  76  O 1   s        0.00004  -0.00004  -0.00003   0.99281  -0.00007   0.00000
  77  O 1   s        0.00021  -0.00021  -0.00015   0.02569  -0.00032   0.00000
  78  O 1   px       0.00000  -0.00002  -0.00001  -0.00007   0.00000  -0.00004
  79  O 1   py       0.00000  -0.00002  -0.00002   0.00054   0.00001  -0.00005
  80  O 1   pz       0.00002  -0.00001  -0.00001   0.00060  -0.00004  -0.00001
  81  O 1   s       -0.00151   0.00130   0.00079   0.01265   0.00199  -0.00078
  82  O 1   px      -0.00003   0.00000   0.00017  -0.00010  -0.00005   0.00002
  83  O 1   py      -0.00027   0.00042   0.00017   0.00086   0.00022  -0.00019
  84  O 1   pz      -0.00034   0.00020   0.00022   0.00094   0.00056  -0.00016
  85  O 1   dxx      0.00019  -0.00012  -0.00013  -0.00796  -0.00016   0.00001
  86  O 1   dxy     -0.00002  -0.00001   0.00003   0.00000  -0.00005   0.00009
  87  O 1   dyy      0.00013  -0.00009  -0.00007  -0.00786  -0.00020  -0.00005
  88  O 1   dxz      0.00000   0.00002   0.00003  -0.00002  -0.00001  -0.00005
  89  O 1   dyz     -0.00004   0.00005   0.00001   0.00012   0.00007   0.00004
  90  O 1   dzz      0.00011  -0.00015  -0.00006  -0.00785  -0.00014  -0.00006
  91  O 2   s        0.99270   0.00003  -0.00002   0.00006  -0.00006  -0.00007
  92  O 2   s        0.02541   0.00012  -0.00006   0.00019   0.00067  -0.00033
  93  O 2   px       0.00082   0.00000  -0.00002   0.00002  -0.00013   0.00001
  94  O 2   py       0.00032  -0.00001   0.00000   0.00000  -0.00003   0.00000
  95  O 2   pz       0.00045   0.00001   0.00001  -0.00001  -0.00011  -0.00002
  96  O 2   s        0.01543  -0.00086   0.00038  -0.00127  -0.00493   0.00212
  97  O 2   px       0.00186  -0.00023   0.00016  -0.00028  -0.00234   0.00047
  98  O 2   py       0.00046   0.00003  -0.00004  -0.00012  -0.00073   0.00020
  99  O 2   pz       0.00085  -0.00008  -0.00005  -0.00011  -0.00080   0.00031
 100  O 2   dxx     -0.00787   0.00005  -0.00002   0.00013  -0.00021  -0.00015
 101  O 2   dxy      0.00014   0.00000   0.00000  -0.00003  -0.00030   0.00004
 102  O 2   dyy     -0.00826   0.00008  -0.00005   0.00016   0.00043  -0.00020
 103  O 2   dxz      0.00024  -0.00001  -0.00001  -0.00002  -0.00040   0.00004
 104  O 2   dyz      0.00007   0.00002  -0.00002   0.00000  -0.00021   0.00000
 105  O 2   dzz     -0.00820   0.00008  -0.00005   0.00014   0.00041  -0.00020
 106  O 3   s        0.00002   0.99271   0.00160  -0.00004  -0.00006  -0.00006
 107  O 3   s        0.00011   0.02544   0.00023  -0.00016  -0.00026   0.00040
 108  O 3   px       0.00001  -0.00068  -0.00005   0.00002  -0.00002   0.00012
 109  O 3   py       0.00000   0.00022  -0.00005   0.00002   0.00001   0.00003
 110  O 3   pz      -0.00001  -0.00043   0.00000   0.00000   0.00003   0.00003
 111  O 3   s       -0.00076   0.01479  -0.00112   0.00086   0.00176  -0.00253
 112  O 3   px       0.00015  -0.00157   0.00041  -0.00033  -0.00044   0.00116
 113  O 3   py      -0.00002   0.00044   0.00040  -0.00004   0.00004  -0.00104
 114  O 3   pz       0.00010  -0.00092  -0.00005  -0.00010  -0.00033   0.00119
 115  O 3   dxx      0.00006  -0.00797   0.00010  -0.00006  -0.00010  -0.00012
 116  O 3   dxy      0.00001  -0.00009   0.00001   0.00000  -0.00003   0.00021
 117  O 3   dyy      0.00006  -0.00821   0.00006  -0.00011  -0.00016   0.00025
 118  O 3   dxz     -0.00001   0.00019   0.00001   0.00004   0.00006  -0.00043
 119  O 3   dyz     -0.00001  -0.00006   0.00002   0.00003   0.00002   0.00022
 120  O 3   dzz      0.00006  -0.00814   0.00007  -0.00011  -0.00015   0.00014
 121  O 4   s       -0.00001  -0.00152   0.99273  -0.00002  -0.00001  -0.00009
 122  O 4   s       -0.00007   0.00018   0.02551  -0.00008   0.00000   0.00023
 123  O 4   px      -0.00002  -0.00005   0.00010   0.00003   0.00009   0.00004
 124  O 4   py       0.00000  -0.00004  -0.00068   0.00002   0.00001   0.00012
 125  O 4   pz       0.00001  -0.00001   0.00045  -0.00001  -0.00002  -0.00001
 126  O 4   s        0.00062  -0.00139   0.01432   0.00033  -0.00055  -0.00115
 127  O 4   px       0.00001   0.00046   0.00016  -0.00011  -0.00016  -0.00087
 128  O 4   py      -0.00015   0.00040  -0.00143  -0.00015   0.00012   0.00091
 129  O 4   pz       0.00003   0.00002   0.00100   0.00008   0.00001  -0.00105
 130  O 4   dxx     -0.00006   0.00010  -0.00818  -0.00008   0.00002   0.00019
 131  O 4   dxy      0.00001   0.00002  -0.00003   0.00002   0.00000   0.00015
 132  O 4   dyy     -0.00003   0.00013  -0.00794  -0.00002  -0.00005  -0.00021
 133  O 4   dxz     -0.00001  -0.00002   0.00002   0.00000   0.00000  -0.00015
 134  O 4   dyz      0.00002   0.00000  -0.00020  -0.00001  -0.00007   0.00045
 135  O 4   dzz     -0.00003   0.00011  -0.00808  -0.00006  -0.00008   0.00006
 136  H 1   s        0.00008  -0.00003   0.00008   0.00002  -0.00021  -0.00014
 137  H 1   s        0.00020   0.00022   0.00009   0.00002  -0.00066   0.00097
 138  H 2   s        0.00005   0.00002   0.00008   0.00001  -0.00019  -0.00003
 139  H 2   s        0.00008   0.00010  -0.00004  -0.00004   0.00031  -0.00034
 140  H 3   s        0.00006  -0.00002  -0.00001   0.00001  -0.00022   0.00005
 141  H 3   s        0.00000  -0.00012  -0.00015   0.00003   0.00021   0.00043
 142  H 4   s       -0.00004   0.00001  -0.00003   0.00007  -0.00018  -0.00001
 143  H 4   s       -0.00001  -0.00004  -0.00020  -0.00023  -0.00047   0.00049
 144  H 5   s        0.00000   0.00009   0.00003   0.00005   0.00002  -0.00009
 145  H 5   s        0.00002  -0.00045  -0.00002   0.00014   0.00079  -0.00014
 146  H 6   s       -0.00005   0.00000   0.00003   0.00003  -0.00014  -0.00007
 147  H 6   s       -0.00012   0.00002   0.00018   0.00009  -0.00006  -0.00045
                         7         8         9        10        11        12
 eigenvalues:         -9.886    -9.858    -9.844    -0.694    -0.636    -0.548
   1  C 1   s       -0.00019   0.99349  -0.00479  -0.01799  -0.02815  -0.00323
   2  C 1   s       -0.00015   0.05038  -0.00030   0.03228   0.05354   0.00567
   3  C 1   px       0.00006  -0.00038   0.00002  -0.01843   0.02109  -0.00604
   4  C 1   py      -0.00002  -0.00003  -0.00003   0.00365   0.01009   0.00822
   5  C 1   pz      -0.00005   0.00039   0.00004  -0.00428  -0.00629  -0.00946
   6  C 1   s       -0.00015  -0.02884   0.00230   0.01347   0.01057   0.00924
   7  C 1   px      -0.00057   0.00178   0.00021  -0.00708  -0.00387  -0.01520
   8  C 1   py      -0.00008  -0.00262  -0.00065  -0.00979   0.00754   0.01434
   9  C 1   pz       0.00078  -0.00249   0.00181  -0.01466   0.01484  -0.01624
  10  C 1   dxx      0.00000  -0.00840  -0.00016   0.00488   0.00234  -0.00231
  11  C 1   dxy     -0.00002  -0.00004   0.00003  -0.00286   0.00466   0.00022
  12  C 1   dyy     -0.00013  -0.00816  -0.00014   0.00006   0.00235   0.00250
  13  C 1   dxz      0.00005  -0.00004   0.00001   0.00033  -0.00012  -0.00163
  14  C 1   dyz     -0.00004   0.00027   0.00003   0.00086   0.00121  -0.00065
  15  C 1   dzz     -0.00011  -0.00808  -0.00021  -0.00070  -0.00093  -0.00040
  16  C 2   s       -0.00250  -0.00140  -0.00005  -0.11573   0.00055  -0.00354
  17  C 2   s       -0.00040  -0.00033  -0.00045   0.22195   0.00022   0.00430
  18  C 2   px       0.00008   0.00004  -0.00012  -0.15465   0.02251   0.00972
  19  C 2   py      -0.00008   0.00005   0.00004  -0.04243   0.00213   0.00344
  20  C 2   pz      -0.00007   0.00015  -0.00008  -0.07016   0.00563   0.00171
  21  C 2   s        0.00388   0.00593   0.00256   0.08143  -0.00012  -0.00051
  22  C 2   px       0.00008   0.00536  -0.00007   0.03294  -0.00824   0.00230
  23  C 2   py       0.00240  -0.00352  -0.00074   0.02355  -0.00454   0.01194
  24  C 2   pz       0.00171  -0.00093   0.00035   0.02907  -0.00691   0.00730
  25  C 2   dxx     -0.00015  -0.00024  -0.00011   0.01247   0.00070  -0.00024
  26  C 2   dxy     -0.00001   0.00012  -0.00005   0.01000  -0.00129   0.00021
  27  C 2   dyy     -0.00027  -0.00015  -0.00008  -0.01564   0.00143  -0.00010
  28  C 2   dxz     -0.00003   0.00009   0.00005   0.01744  -0.00152  -0.00086
  29  C 2   dyz     -0.00009   0.00005  -0.00005   0.00534  -0.00007  -0.00016
  30  C 2   dzz     -0.00021  -0.00011  -0.00009  -0.01185   0.00066  -0.00059
  31  C 3   s        0.99291   0.00008   0.00002  -0.02094  -0.00271  -0.00532
  32  C 3   s        0.05021  -0.00029   0.00007   0.04072   0.00592   0.00845
  33  C 3   px      -0.00012   0.00000   0.00001  -0.00787   0.00415   0.00215
  34  C 3   py       0.00022   0.00007   0.00005  -0.02042  -0.00071  -0.00032
  35  C 3   pz       0.00012   0.00000   0.00002  -0.01706  -0.00075  -0.00128
  36  C 3   s       -0.01769   0.00196  -0.00041  -0.00393   0.00295   0.00342
  37  C 3   px      -0.00009  -0.00103  -0.00011  -0.01362   0.00141   0.00784
  38  C 3   py       0.00087  -0.00077   0.00034   0.00537  -0.00216   0.00381
  39  C 3   pz       0.00082  -0.00053   0.00002  -0.00049  -0.00207  -0.00284
  40  C 3   dxx     -0.00912  -0.00007  -0.00001  -0.00082   0.00059   0.00020
  41  C 3   dxy      0.00002   0.00008   0.00000   0.00179  -0.00038  -0.00007
  42  C 3   dyy     -0.00924  -0.00008  -0.00005   0.00383   0.00017  -0.00051
  43  C 3   dxz      0.00001   0.00010   0.00001   0.00102  -0.00056  -0.00031
  44  C 3   dyz     -0.00011   0.00007   0.00000   0.00395  -0.00011  -0.00005
  45  C 3   dzz     -0.00917  -0.00008   0.00002   0.00255   0.00017  -0.00038
  46  C 4   s        0.00040  -0.00218   0.00003  -0.00615  -0.13562  -0.00138
  47  C 4   s       -0.00005  -0.00061  -0.00018   0.01458   0.26214   0.00279
  48  C 4   px       0.00003  -0.00011   0.00006  -0.00250   0.07217  -0.13751
  49  C 4   py      -0.00004  -0.00004   0.00004   0.00089   0.05452   0.15828
  50  C 4   pz       0.00000   0.00006  -0.00008  -0.00076  -0.00118  -0.15607
  51  C 4   s       -0.00019   0.00587   0.00000   0.00236   0.08479   0.00053
  52  C 4   px      -0.00081  -0.00395  -0.00018   0.00845  -0.02691   0.01773
  53  C 4   py      -0.00007  -0.00257  -0.00049  -0.00866  -0.01559  -0.02168
  54  C 4   pz      -0.00061   0.00013   0.00041   0.00793  -0.00256   0.02047
  55  C 4   dxx     -0.00011  -0.00021  -0.00012   0.00060  -0.00531  -0.02129
  56  C 4   dxy      0.00004  -0.00009   0.00003   0.00023  -0.00820   0.00441
  57  C 4   dyy     -0.00002  -0.00024  -0.00013   0.00042  -0.00419   0.02055
  58  C 4   dxz     -0.00003   0.00003   0.00000   0.00050   0.01423  -0.01371
  59  C 4   dyz      0.00001  -0.00013   0.00000  -0.00065  -0.01653  -0.01232
  60  C 4   dzz     -0.00005  -0.00017  -0.00008   0.00015  -0.00907   0.00108
  61  C 5   s        0.00000   0.00459   0.99294  -0.00490  -0.00726   0.00385
  62  C 5   s        0.00008  -0.00012   0.05003   0.00869   0.01457  -0.00587
  63  C 5   px       0.00003  -0.00005  -0.00019  -0.00133   0.00355  -0.00316
  64  C 5   py      -0.00008   0.00017  -0.00011   0.00283   0.00455   0.00006
  65  C 5   pz       0.00005  -0.00018   0.00035  -0.00425  -0.00613   0.00030
  66  C 5   s       -0.00080   0.00661  -0.01671   0.00730   0.00149   0.00196
  67  C 5   px       0.00009   0.00057   0.00041  -0.00219  -0.00157  -0.00349
  68  C 5   py      -0.00006   0.00138  -0.00047   0.00226  -0.00372  -0.00859
  69  C 5   pz      -0.00002  -0.00253   0.00061  -0.00079  -0.00066  -0.00492
  70  C 5   dxx     -0.00001  -0.00016  -0.00904  -0.00008   0.00047  -0.00047
  71  C 5   dxy      0.00001   0.00002  -0.00001   0.00025   0.00034  -0.00047
  72  C 5   dyy     -0.00003  -0.00015  -0.00912  -0.00026   0.00029   0.00021
  73  C 5   dxz     -0.00003   0.00002   0.00002  -0.00001  -0.00030   0.00031
  74  C 5   dyz      0.00001   0.00006   0.00013  -0.00053  -0.00050   0.00016
  75  C 5   dzz      0.00000  -0.00031  -0.00920   0.00041   0.00135   0.00080
  76  O 1   s       -0.00005  -0.00020  -0.00005  -0.01022  -0.01915  -0.00322
  77  O 1   s       -0.00023  -0.00056  -0.00023   0.02415   0.03826   0.00759
  78  O 1   px       0.00002   0.00005   0.00000  -0.00330   0.00123  -0.00113
  79  O 1   py      -0.00003  -0.00011  -0.00001   0.00737   0.01233   0.00303
  80  O 1   pz       0.00000  -0.00012  -0.00005   0.00712   0.01171   0.00056
  81  O 1   s        0.00113   0.00410   0.00083   0.00629   0.05092   0.00390
  82  O 1   px      -0.00009  -0.00033  -0.00002  -0.00171   0.00064   0.00109
  83  O 1   py       0.00038   0.00062   0.00021  -0.00007   0.00765  -0.00108
  84  O 1   pz       0.00018   0.00065   0.00025  -0.00128   0.00743   0.00073
  85  O 1   dxx     -0.00015  -0.00026  -0.00026   0.00100  -0.00218  -0.00026
  86  O 1   dxy     -0.00003   0.00000   0.00000  -0.00055  -0.00001   0.00022
  87  O 1   dyy     -0.00011  -0.00046  -0.00010   0.00101  -0.00028   0.00032
  88  O 1   dxz      0.00001   0.00000  -0.00002  -0.00024   0.00015  -0.00009
  89  O 1   dyz      0.00007  -0.00031   0.00000   0.00081   0.00184  -0.00005
  90  O 1   dzz     -0.00015  -0.00052   0.00000   0.00089  -0.00037   0.00045
  91  O 2   s       -0.00006  -0.00008   0.00006  -0.19473   0.01404   0.00436
  92  O 2   s       -0.00030  -0.00038   0.00028   0.41828  -0.02854  -0.01067
  93  O 2   px      -0.00003  -0.00005   0.00005   0.12803  -0.00713  -0.00127
  94  O 2   py      -0.00003  -0.00004  -0.00002   0.04593  -0.00329  -0.00026
  95  O 2   pz      -0.00002  -0.00006   0.00004   0.06933  -0.00456  -0.00135
  96  O 2   s        0.00112   0.00179  -0.00154   0.42246  -0.03989  -0.00359
  97  O 2   px       0.00043  -0.00009  -0.00047   0.04426  -0.00414   0.00183
  98  O 2   py      -0.00004   0.00078   0.00011   0.01759  -0.00204  -0.00111
  99  O 2   pz       0.00006   0.00060  -0.00036   0.02548  -0.00286   0.00014
 100  O 2   dxx     -0.00008  -0.00033   0.00015   0.00270   0.00061   0.00009
 101  O 2   dxy     -0.00001   0.00005   0.00003   0.00678  -0.00055  -0.00008
 102  O 2   dyy     -0.00018  -0.00016   0.00019  -0.00883   0.00119  -0.00024
 103  O 2   dxz      0.00005   0.00009  -0.00004   0.00821  -0.00065  -0.00008
 104  O 2   dyz      0.00011   0.00015   0.00001   0.00052  -0.00008  -0.00011
 105  O 2   dzz     -0.00022  -0.00024   0.00016  -0.00518   0.00091  -0.00030
 106  O 3   s       -0.00004  -0.00006   0.00000  -0.00357  -0.13251   0.15197
 107  O 3   s       -0.00018  -0.00029  -0.00001   0.00950   0.28415  -0.32350
 108  O 3   px      -0.00001   0.00003   0.00002  -0.00289  -0.08695   0.07988
 109  O 3   py       0.00000  -0.00004  -0.00002   0.00085   0.03307  -0.01304
 110  O 3   pz       0.00001   0.00007  -0.00002  -0.00187  -0.05759   0.04218
 111  O 3   s        0.00114   0.00116  -0.00009  -0.00249   0.28245  -0.35861
 112  O 3   px      -0.00026   0.00012  -0.00002   0.00079  -0.03072   0.02995
 113  O 3   py       0.00013   0.00056   0.00019   0.00042   0.01773   0.00006
 114  O 3   pz      -0.00021  -0.00045  -0.00007   0.00101  -0.02318   0.01190
 115  O 3   dxx     -0.00007  -0.00023   0.00002   0.00069   0.00292   0.00074
 116  O 3   dxy     -0.00002  -0.00001  -0.00003  -0.00013  -0.00579   0.00073
 117  O 3   dyy     -0.00010  -0.00012  -0.00004   0.00046  -0.00569   0.00923
 118  O 3   dxz      0.00004   0.00008   0.00002   0.00012   0.00778  -0.00360
 119  O 3   dyz     -0.00001  -0.00012  -0.00004  -0.00012  -0.00242  -0.00114
 120  O 3   dzz     -0.00010  -0.00020   0.00001   0.00050  -0.00136   0.00631
 121  O 4   s       -0.00003  -0.00004  -0.00004  -0.00566  -0.12811  -0.15382
 122  O 4   s       -0.00008  -0.00021  -0.00015   0.01149   0.27590   0.32688
 123  O 4   px       0.00004  -0.00006  -0.00001  -0.00069   0.01695  -0.00211
 124  O 4   py      -0.00001   0.00007   0.00002  -0.00412  -0.08583  -0.07906
 125  O 4   pz      -0.00005  -0.00002   0.00003   0.00274   0.06065   0.04865
 126  O 4   s        0.00021   0.00056   0.00087   0.01853   0.26582   0.36450
 127  O 4   px       0.00004   0.00072   0.00005   0.00041   0.01169  -0.00644
 128  O 4   py       0.00005  -0.00001  -0.00027  -0.00322  -0.02938  -0.02909
 129  O 4   pz       0.00022   0.00011   0.00003   0.00173   0.02473   0.01687
 130  O 4   dxx     -0.00008  -0.00009  -0.00011  -0.00059  -0.00652  -0.00945
 131  O 4   dxy     -0.00003  -0.00003   0.00000   0.00003  -0.00372   0.00100
 132  O 4   dyy     -0.00011  -0.00014  -0.00006   0.00026   0.00418  -0.00133
 133  O 4   dxz     -0.00001   0.00014   0.00002  -0.00010   0.00136  -0.00190
 134  O 4   dyz     -0.00004  -0.00006  -0.00002  -0.00017  -0.00824  -0.00399
 135  O 4   dzz     -0.00007  -0.00018  -0.00010   0.00005  -0.00012  -0.00586
 136  H 1   s       -0.00002  -0.00003   0.00003   0.00724   0.00376   0.00428
 137  H 1   s        0.00278   0.00030   0.00001   0.00675   0.00598  -0.00021
 138  H 2   s       -0.00003  -0.00005  -0.00001   0.00925   0.00129   0.00280
 139  H 2   s        0.00282  -0.00003  -0.00001   0.00186   0.00179   0.00052
 140  H 3   s       -0.00007  -0.00009   0.00009   0.00990   0.00073   0.00238
 141  H 3   s        0.00270  -0.00038  -0.00022   0.00222   0.00045   0.00489
 142  H 4   s        0.00005  -0.00024  -0.00003   0.00187   0.00257  -0.00193
 143  H 4   s        0.00007   0.00001   0.00286   0.00188  -0.00173  -0.00542
 144  H 5   s        0.00003  -0.00032  -0.00011   0.00147   0.00561  -0.00460
 145  H 5   s        0.00009  -0.00039   0.00250   0.00140   0.00374  -0.00583
 146  H 6   s       -0.00003  -0.00020  -0.00009   0.00236   0.00328  -0.00086
 147  H 6   s        0.00039  -0.00023   0.00293  -0.00189   0.00253   0.00236
                        13        14        15        16        17        18
 eigenvalues:         -0.537    -0.431    -0.372    -0.273    -0.184    -0.142
   1  C 1   s       -0.11622  -0.02013  -0.04639  -0.09095   0.06098  -0.00908
   2  C 1   s        0.22857   0.03719   0.08539   0.19003  -0.12906   0.02340
   3  C 1   px      -0.00145  -0.02474  -0.02563  -0.06607  -0.15698  -0.17655
   4  C 1   py      -0.09700   0.04585   0.02658   0.15730  -0.06922  -0.02452
   5  C 1   pz      -0.08880   0.05495   0.13419   0.03353  -0.03509   0.02317
   6  C 1   s        0.10692   0.03789   0.10816   0.15456  -0.12552   0.00170
   7  C 1   px       0.00139  -0.00468  -0.00370  -0.01394  -0.01896  -0.04039
   8  C 1   py       0.02337   0.00793   0.00833   0.04240  -0.03364  -0.00809
   9  C 1   pz       0.02900   0.01506   0.03413   0.01816  -0.03342  -0.00969
  10  C 1   dxx     -0.01378   0.00170   0.00066   0.00778   0.00224   0.00150
  11  C 1   dxy     -0.00185  -0.00256   0.00102  -0.00398  -0.01002  -0.00381
  12  C 1   dyy      0.00069  -0.00152  -0.00525  -0.00528   0.00311  -0.00427
  13  C 1   dxz     -0.00256  -0.00152  -0.00155  -0.00081  -0.00254  -0.00282
  14  C 1   dyz      0.01677  -0.00464  -0.01446  -0.00223   0.00360   0.00164
  15  C 1   dzz      0.00416  -0.00218   0.00201  -0.01473   0.00514  -0.00047
  16  C 2   s       -0.01230  -0.06363  -0.01251  -0.10159  -0.09976   0.01599
  17  C 2   s        0.02355   0.12630   0.02508   0.21818   0.21963  -0.04178
  18  C 2   px       0.05964   0.06668   0.04394   0.15386  -0.05816   0.12423
  19  C 2   py      -0.01811   0.09603  -0.06268  -0.04118   0.04685  -0.22105
  20  C 2   pz       0.00894   0.10075   0.00119   0.01342   0.05310   0.02137
  21  C 2   s        0.02218   0.10268   0.01543   0.17755   0.20289   0.02149
  22  C 2   px      -0.00528   0.01099   0.00562   0.05397   0.01042   0.02360
  23  C 2   py      -0.01352   0.02126  -0.00810   0.00081   0.00216  -0.06708
  24  C 2   pz      -0.01214   0.02415   0.00894   0.01764   0.02920   0.02336
  25  C 2   dxx      0.00120  -0.01049   0.00120  -0.00251  -0.01316  -0.00021
  26  C 2   dxy     -0.00677  -0.00609  -0.00161  -0.00622  -0.00356   0.00514
  27  C 2   dyy      0.00368   0.00713  -0.00334  -0.00530  -0.00371   0.00137
  28  C 2   dxz     -0.00352  -0.00481   0.00216  -0.00173  -0.00347   0.00091
  29  C 2   dyz      0.00081   0.00789  -0.00572  -0.00099   0.00145   0.00109
  30  C 2   dzz     -0.00044  -0.00015  -0.00219  -0.00822  -0.00691   0.00509
  31  C 3   s       -0.00443  -0.17491   0.06549   0.04582   0.01630  -0.00608
  32  C 3   s        0.00978   0.33792  -0.12828  -0.09073  -0.03258   0.01281
  33  C 3   px       0.00520   0.00110   0.01673   0.05257  -0.04985   0.11699
  34  C 3   py      -0.00452  -0.01205  -0.02758  -0.09976  -0.15560  -0.00350
  35  C 3   pz      -0.00061  -0.00716  -0.00357  -0.06545  -0.10752   0.27040
  36  C 3   s        0.01238   0.29727  -0.12824  -0.09738  -0.02798  -0.00881
  37  C 3   px       0.00017  -0.00356   0.01085   0.02174  -0.01950   0.07275
  38  C 3   py      -0.00026   0.00685  -0.01554  -0.03496  -0.06862   0.01624
  39  C 3   pz       0.00106   0.01691  -0.00260  -0.02334  -0.05376   0.13371
  40  C 3   dxx      0.00007   0.00086  -0.00094  -0.00368  -0.00803   0.01291
  41  C 3   dxy     -0.00058  -0.00050  -0.00110  -0.00230   0.00111   0.00307
  42  C 3   dyy      0.00055  -0.00059   0.00189   0.00481   0.00613  -0.00871
  43  C 3   dxz     -0.00039  -0.00004  -0.00016  -0.00014  -0.00212   0.00001
  44  C 3   dyz     -0.00003  -0.00163   0.00253   0.00854   0.00837   0.00081
  45  C 3   dzz      0.00012   0.00001  -0.00072  -0.00046   0.00103  -0.00221
  46  C 4   s        0.00755  -0.00029  -0.00632  -0.03400   0.07684   0.05027
  47  C 4   s       -0.01631  -0.00007   0.01556   0.07298  -0.16405  -0.11079
  48  C 4   px      -0.04043  -0.01981  -0.03648  -0.08878   0.12691   0.05761
  49  C 4   py      -0.04325  -0.01530  -0.01415  -0.05982   0.10523   0.07313
  50  C 4   pz      -0.00104   0.01476   0.00673   0.01370  -0.01129   0.01335
  51  C 4   s       -0.00613   0.00773  -0.00572   0.05077  -0.14654  -0.09408
  52  C 4   px       0.00182  -0.00117   0.00204  -0.02525   0.05592   0.02794
  53  C 4   py       0.00204   0.00350   0.00222  -0.00687   0.04074   0.03284
  54  C 4   pz      -0.01295   0.00351   0.00269   0.00199  -0.00547   0.00649
  55  C 4   dxx      0.00330   0.00262   0.00003   0.00515   0.00424   0.00531
  56  C 4   dxy      0.00664   0.00058   0.00265   0.00511  -0.00689  -0.00221
  57  C 4   dyy      0.00297  -0.00141   0.00061  -0.00415   0.00356   0.00222
  58  C 4   dxz     -0.00148  -0.00106  -0.00297  -0.00134   0.00325   0.00054
  59  C 4   dyz      0.00470   0.00142  -0.00092   0.00264  -0.00224  -0.00046
  60  C 4   dzz     -0.00033  -0.00052  -0.00030  -0.00447   0.00767   0.00448
  61  C 5   s       -0.03721  -0.03757  -0.16835   0.07868  -0.00983   0.01388
  62  C 5   s        0.06880   0.07239   0.32429  -0.15653   0.01879  -0.03040
  63  C 5   px       0.00014  -0.00742  -0.00714  -0.00866  -0.07693  -0.12215
  64  C 5   py       0.00682   0.01555   0.00259   0.07722  -0.04085   0.04921
  65  C 5   pz      -0.03282  -0.00060   0.01195  -0.08211   0.04317  -0.04011
  66  C 5   s        0.04448   0.05430   0.29188  -0.15161   0.02526  -0.02990
  67  C 5   px      -0.00065  -0.00217  -0.01506  -0.00405  -0.03922  -0.05964
  68  C 5   py      -0.00877   0.00247  -0.00387   0.03080  -0.01265   0.03729
  69  C 5   pz      -0.01130   0.00492   0.02726  -0.03318   0.01444  -0.03606
  70  C 5   dxx     -0.00069   0.00010   0.00199  -0.00465   0.00014  -0.00558
  71  C 5   dxy      0.00007  -0.00110  -0.00083  -0.00109  -0.00033   0.00027
  72  C 5   dyy     -0.00084   0.00117   0.00022   0.00119   0.00122   0.00243
  73  C 5   dxz      0.00010   0.00017   0.00082   0.00032   0.00216   0.00057
  74  C 5   dyz     -0.00203  -0.00028   0.00205  -0.00839   0.00472  -0.00012
  75  C 5   dzz      0.00608  -0.00076  -0.00248   0.00440  -0.00197   0.00331
  76  O 1   s       -0.18071   0.03886   0.07229   0.05743  -0.03587   0.00325
  77  O 1   s        0.38290  -0.08393  -0.15540  -0.12415   0.08169  -0.00679
  78  O 1   px      -0.01028  -0.00018  -0.00196  -0.01077  -0.03728  -0.05741
  79  O 1   py       0.08394  -0.01140  -0.02047   0.02924  -0.03283  -0.00567
  80  O 1   pz       0.09563  -0.01044  -0.00209  -0.00009  -0.02152   0.00584
  81  O 1   s        0.41712  -0.09137  -0.18788  -0.16043   0.09632  -0.01463
  82  O 1   px      -0.00450   0.00104  -0.00082  -0.00468  -0.01871  -0.03615
  83  O 1   py       0.03629  -0.00230  -0.00669   0.01879  -0.02449  -0.00371
  84  O 1   pz       0.04245  -0.00314  -0.00140   0.00419  -0.01633   0.00272
  85  O 1   dxx     -0.01099   0.00147   0.00363   0.00271   0.00038   0.00141
  86  O 1   dxy     -0.00113   0.00010  -0.00011  -0.00115  -0.00261  -0.00415
  87  O 1   dyy     -0.00184   0.00115   0.00204   0.00606  -0.00290  -0.00107
  88  O 1   dxz     -0.00151  -0.00003  -0.00031  -0.00089  -0.00303  -0.00428
  89  O 1   dyz      0.01136  -0.00069  -0.00084   0.00303  -0.00345   0.00018
  90  O 1   dzz      0.00037   0.00108   0.00433   0.00235  -0.00153   0.00061
  91  O 2   s        0.02755   0.05315   0.00155   0.04568   0.07354  -0.02408
  92  O 2   s       -0.05830  -0.11787  -0.00278  -0.10227  -0.15706   0.05160
  93  O 2   px      -0.00495  -0.00719   0.00869   0.07685   0.16749  -0.03230
  94  O 2   py      -0.01064   0.01640  -0.01854  -0.00781   0.07453  -0.19281
  95  O 2   pz      -0.00796   0.01333   0.00048   0.01355   0.12024  -0.03720
  96  O 2   s       -0.07828  -0.13665  -0.00306  -0.13105  -0.27471   0.09043
  97  O 2   px      -0.00322   0.00398   0.00525   0.04998   0.09556  -0.01885
  98  O 2   py      -0.00604   0.00734  -0.00785  -0.00104   0.03984  -0.11655
  99  O 2   pz      -0.00462   0.00628   0.00032   0.00996   0.06397  -0.02129
 100  O 2   dxx      0.00215   0.00179   0.00191   0.00932   0.01305  -0.00003
 101  O 2   dxy     -0.00163   0.00138  -0.00106   0.00095   0.00574  -0.01110
 102  O 2   dyy      0.00150   0.00261  -0.00080  -0.00059   0.00473  -0.00799
 103  O 2   dxz     -0.00077   0.00162   0.00075   0.00350   0.00947  -0.00122
 104  O 2   dyz     -0.00014   0.00216  -0.00133  -0.00001   0.00553  -0.00725
 105  O 2   dzz      0.00110   0.00255   0.00041   0.00047   0.00701  -0.00076
 106  O 3   s        0.02287   0.00350   0.01459   0.01485  -0.04495  -0.02978
 107  O 3   s       -0.05094  -0.00672  -0.03264  -0.03271   0.09898   0.06498
 108  O 3   px       0.00894  -0.00183  -0.00362  -0.02013   0.08264   0.06533
 109  O 3   py      -0.01073  -0.00311  -0.00884  -0.01003   0.02860   0.02847
 110  O 3   pz       0.00880   0.00452   0.00885   0.00066   0.01605   0.02623
 111  O 3   s       -0.04646  -0.01239  -0.03604  -0.03968   0.14215   0.10033
 112  O 3   px       0.00034   0.00033  -0.00451  -0.01214   0.04877   0.04015
 113  O 3   py      -0.00524  -0.00265  -0.00468  -0.00352   0.01158   0.01515
 114  O 3   pz       0.00400   0.00286   0.00420  -0.00302   0.01460   0.01805
 115  O 3   dxx      0.00000   0.00083   0.00151   0.00325  -0.00920  -0.00633
 116  O 3   dxy      0.00139   0.00044   0.00080   0.00043  -0.00090  -0.00127
 117  O 3   dyy      0.00013   0.00033   0.00020  -0.00058   0.00027   0.00015
 118  O 3   dxz     -0.00078  -0.00053  -0.00055   0.00095  -0.00399  -0.00365
 119  O 3   dyz      0.00106   0.00034   0.00015   0.00086  -0.00075  -0.00028
 120  O 3   dzz     -0.00055   0.00010  -0.00018  -0.00003  -0.00126  -0.00179
 121  O 4   s        0.02877   0.01470   0.00242   0.02972  -0.03923  -0.02296
 122  O 4   s       -0.06156  -0.03119  -0.00530  -0.06407   0.08560   0.04993
 123  O 4   px      -0.00782  -0.00998  -0.00504  -0.02920   0.03681   0.02235
 124  O 4   py       0.01200   0.00739  -0.00208  -0.01981   0.06209   0.05639
 125  O 4   pz      -0.01259  -0.00096   0.00050   0.00488  -0.02516  -0.00781
 126  O 4   s       -0.07068  -0.03981  -0.00488  -0.09161   0.12676   0.07622
 127  O 4   px      -0.00494  -0.00482  -0.00303  -0.01258   0.01441   0.01090
 128  O 4   py       0.00574   0.00362  -0.00259  -0.01181   0.03759   0.03510
 129  O 4   pz      -0.00465  -0.00100   0.00072   0.00291  -0.01785  -0.00657
 130  O 4   dxx      0.00123   0.00146  -0.00017   0.00156   0.00003  -0.00030
 131  O 4   dxy      0.00125   0.00066   0.00072   0.00224  -0.00206  -0.00104
 132  O 4   dyy      0.00030   0.00035   0.00044   0.00381  -0.00741  -0.00595
 133  O 4   dxz     -0.00042  -0.00065  -0.00051  -0.00114   0.00150   0.00069
 134  O 4   dyz      0.00136   0.00036  -0.00036  -0.00151   0.00398   0.00254
 135  O 4   dzz      0.00034   0.00097   0.00014   0.00141  -0.00214  -0.00031
 136  H 1   s        0.00431   0.11389  -0.04051  -0.03586  -0.08534   0.14154
 137  H 1   s       -0.00093   0.02541  -0.00925  -0.02091  -0.06040   0.10015
 138  H 2   s        0.00142   0.11491  -0.05710  -0.06485  -0.04787  -0.10457
 139  H 2   s       -0.00129   0.03594  -0.01896  -0.03919  -0.03703  -0.09113
 140  H 3   s        0.00143   0.11582  -0.05245  -0.07543  -0.02809   0.06992
 141  H 3   s       -0.00141   0.03168  -0.01819  -0.05030  -0.02283   0.07468
 142  H 4   s        0.02110   0.02076   0.11381  -0.08248   0.04786   0.00958
 143  H 4   s        0.00350   0.00352   0.03303  -0.04618   0.03397   0.01868
 144  H 5   s        0.01693   0.01966   0.11196  -0.08335  -0.01622  -0.09030
 145  H 5   s        0.00362   0.00337   0.03512  -0.03976  -0.00172  -0.05441
 146  H 6   s        0.01561   0.03243   0.11977  -0.06991   0.03020   0.02031
 147  H 6   s        0.00806   0.01572   0.03557  -0.04143   0.01997   0.03101
                        19        20        21        22        23        24
 eigenvalues:         -0.133    -0.113    -0.093    -0.082    -0.074    -0.048
   1  C 1   s       -0.00259   0.05275   0.03009  -0.01836  -0.00603  -0.00635
   2  C 1   s        0.00836  -0.11888  -0.06822   0.03828   0.01184   0.02167
   3  C 1   px       0.09270   0.06707   0.03593   0.05818  -0.04582   0.02037
   4  C 1   py       0.00012   0.06113   0.05045  -0.03182   0.11684  -0.12426
   5  C 1   pz       0.01770  -0.03903  -0.08668   0.03802  -0.06730   0.16512
   6  C 1   s       -0.01171  -0.10683  -0.05417   0.06116   0.02211  -0.03578
   7  C 1   px       0.02990   0.01894  -0.02130   0.00292  -0.00129   0.00727
   8  C 1   py       0.01869   0.03226  -0.02941  -0.01191   0.01861  -0.04908
   9  C 1   pz       0.00337   0.00594  -0.04866  -0.01470  -0.02364   0.03326
  10  C 1   dxx      0.00094  -0.00207   0.00772  -0.00295   0.00102  -0.00140
  11  C 1   dxy      0.00485  -0.00187   0.00282  -0.00510  -0.00274   0.00230
  12  C 1   dyy     -0.00079   0.00506  -0.00079  -0.00264  -0.00637  -0.00573
  13  C 1   dxz     -0.00261  -0.00093   0.00471   0.00633   0.00073  -0.00208
  14  C 1   dyz      0.00151   0.00824   0.00126  -0.00065   0.00517   0.00364
  15  C 1   dzz      0.00091   0.00449   0.00103   0.00190   0.00348   0.00729
  16  C 2   s        0.00520  -0.00644  -0.02165  -0.00756   0.00499   0.01415
  17  C 2   s       -0.00973   0.01615   0.05153   0.01828  -0.01758  -0.03104
  18  C 2   px      -0.10740   0.02325  -0.15549  -0.06411   0.10271  -0.14298
  19  C 2   py       0.01068   0.17668  -0.14445  -0.02157  -0.04206  -0.08213
  20  C 2   pz       0.13449   0.11315  -0.20254  -0.04672  -0.06564   0.10616
  21  C 2   s       -0.03628  -0.00819   0.03237  -0.01011   0.02292  -0.04967
  22  C 2   px      -0.04009  -0.01907   0.01252   0.00809   0.05057  -0.04018
  23  C 2   py      -0.02140   0.03362   0.02408   0.03257  -0.00954  -0.04632
  24  C 2   pz       0.04774   0.00306  -0.00761   0.00434  -0.03531   0.08779
  25  C 2   dxx      0.00493  -0.00177  -0.00088   0.00133  -0.00076   0.00542
  26  C 2   dxy     -0.00208   0.00514   0.01056   0.00254  -0.00567   0.00489
  27  C 2   dyy     -0.00767  -0.00271  -0.01201  -0.00700   0.00018   0.00389
  28  C 2   dxz     -0.00879   0.00184   0.00816   0.00331  -0.00192   0.00049
  29  C 2   dyz      0.00133   0.00371   0.00153   0.00156  -0.00205  -0.00546
  30  C 2   dzz      0.00286   0.00505  -0.00273  -0.00059   0.00282  -0.00874
  31  C 3   s        0.00530  -0.00257   0.00473   0.00002   0.01221   0.00575
  32  C 3   s       -0.01358   0.00128  -0.00474   0.00045  -0.02487  -0.01070
  33  C 3   px      -0.22808   0.26748   0.07661   0.04186  -0.17886   0.03713
  34  C 3   py      -0.23288  -0.19792   0.11013  -0.03344   0.08776   0.10101
  35  C 3   pz       0.19264  -0.01935   0.14426   0.10556  -0.03929  -0.09235
  36  C 3   s       -0.00082   0.06133  -0.07180  -0.02559  -0.06303  -0.03723
  37  C 3   px      -0.08930   0.12172   0.02454   0.02449  -0.07846   0.00143
  38  C 3   py      -0.10963  -0.12383   0.08906  -0.00129   0.03104   0.04257
  39  C 3   pz       0.05814  -0.01708   0.10436   0.04913  -0.01346  -0.04182
  40  C 3   dxx      0.00449   0.00151   0.00740   0.00513  -0.00406  -0.00378
  41  C 3   dxy      0.00515   0.00420   0.00419   0.00408  -0.00655   0.00029
  42  C 3   dyy     -0.00725  -0.00314  -0.00535  -0.00562   0.00354   0.00898
  43  C 3   dxz     -0.01699   0.01190   0.00505   0.00079  -0.00945   0.00858
  44  C 3   dyz      0.00712   0.01284  -0.00157   0.00374  -0.00829  -0.00638
  45  C 3   dzz      0.00095  -0.00273   0.00264   0.00097   0.00204  -0.00479
  46  C 4   s       -0.04355  -0.01434  -0.05555   0.07018   0.02507  -0.00318
  47  C 4   s        0.09873   0.02797   0.12637  -0.16072  -0.05842   0.00848
  48  C 4   px      -0.01318  -0.02035   0.01371  -0.08748  -0.05790   0.11163
  49  C 4   py      -0.03510   0.01749   0.01392  -0.07616  -0.02525  -0.01645
  50  C 4   pz      -0.01910   0.02208  -0.01217   0.02721  -0.02985   0.13026
  51  C 4   s        0.06364   0.04036   0.11927  -0.10739  -0.03686   0.01187
  52  C 4   px      -0.00603  -0.01489  -0.01398   0.01690  -0.01377   0.02478
  53  C 4   py      -0.02922   0.00871  -0.03030  -0.02113   0.01005  -0.00003
  54  C 4   pz      -0.00078   0.00253   0.01082   0.02591  -0.02020   0.04854
  55  C 4   dxx     -0.00551  -0.00236  -0.00516   0.00463   0.00526  -0.00272
  56  C 4   dxy      0.00328  -0.00247   0.00031  -0.00058   0.00019   0.00237
  57  C 4   dyy     -0.00229  -0.00234  -0.00591   0.01089   0.00028   0.00190
  58  C 4   dxz     -0.00190  -0.00015   0.00062  -0.00084   0.00130  -0.00230
  59  C 4   dyz     -0.00063   0.00241   0.00172  -0.00292  -0.00053  -0.00108
  60  C 4   dzz     -0.00339  -0.00113  -0.00452   0.00950   0.00394  -0.00041
  61  C 5   s        0.00748   0.00106  -0.00179   0.00054   0.00222  -0.00352
  62  C 5   s       -0.01577  -0.00276   0.00737  -0.00075  -0.00654   0.00037
  63  C 5   px       0.01120   0.01947   0.01928   0.30096  -0.03581   0.00631
  64  C 5   py       0.04856   0.07517  -0.00277   0.04238   0.23977   0.25424
  65  C 5   pz       0.00576   0.17491   0.14144  -0.02588   0.23810  -0.06696
  66  C 5   s       -0.01158  -0.02344  -0.01703   0.00881  -0.02484   0.06710
  67  C 5   px       0.00383   0.01740   0.01995   0.13739  -0.02256   0.00919
  68  C 5   py       0.01273   0.01955  -0.01605   0.02788   0.10347   0.13161
  69  C 5   pz      -0.01509   0.06766   0.07975  -0.02072   0.10381  -0.06840
  70  C 5   dxx     -0.00037   0.00040   0.00340   0.00706  -0.00500  -0.00773
  71  C 5   dxy     -0.00170  -0.00645  -0.00213  -0.01037  -0.01171  -0.00694
  72  C 5   dyy     -0.00077  -0.00041  -0.00040  -0.00782  -0.00417  -0.00627
  73  C 5   dxz     -0.00242  -0.00424  -0.00178   0.00580  -0.00797  -0.00519
  74  C 5   dyz     -0.00002   0.00793   0.00554  -0.00741   0.00983   0.00006
  75  C 5   dzz      0.00160   0.00033  -0.00109  -0.00001   0.00993   0.01022
  76  O 1   s       -0.00236  -0.04850  -0.00789   0.01030  -0.01079  -0.01069
  77  O 1   s        0.00426   0.09738   0.02075  -0.01718   0.02350   0.02545
  78  O 1   px       0.03413   0.03375   0.00485   0.02195  -0.01470   0.01344
  79  O 1   py       0.00079  -0.03292   0.01637   0.00833   0.04480  -0.06612
  80  O 1   pz       0.00153  -0.07742  -0.04373   0.03010  -0.06532   0.03687
  81  O 1   s        0.01670   0.19539   0.00208  -0.05981   0.03245   0.03421
  82  O 1   px       0.02013   0.02091   0.00435   0.01689  -0.01142   0.00851
  83  O 1   py       0.00101  -0.01505   0.00637  -0.00111   0.02835  -0.04135
  84  O 1   pz       0.00531  -0.03734  -0.03541   0.01317  -0.04277   0.02397
  85  O 1   dxx     -0.00093  -0.00493   0.00205   0.00161   0.00001   0.00025
  86  O 1   dxy      0.00255   0.00208   0.00005   0.00102  -0.00170   0.00106
  87  O 1   dyy     -0.00054  -0.00503   0.00315   0.00117   0.00370  -0.00611
  88  O 1   dxz      0.00194   0.00240   0.00131   0.00221  -0.00065   0.00031
  89  O 1   dyz      0.00041  -0.00336  -0.00116   0.00107   0.00062  -0.00048
  90  O 1   dzz      0.00044  -0.00982  -0.00421   0.00426  -0.00731   0.00554
  91  O 2   s        0.00729  -0.02325   0.05178   0.01340  -0.00848   0.00794
  92  O 2   s       -0.01584   0.04809  -0.10168  -0.02637   0.01324  -0.01400
  93  O 2   px      -0.04683  -0.14220   0.39050   0.11332  -0.02364   0.01134
  94  O 2   py       0.02138   0.05072   0.02951   0.03772  -0.03724  -0.04629
  95  O 2   pz       0.13226  -0.02315   0.07610   0.03269  -0.11188   0.23146
  96  O 2   s       -0.03134   0.09123  -0.21523  -0.04625   0.05021  -0.03603
  97  O 2   px      -0.03092  -0.08293   0.24241   0.07421  -0.01304   0.00548
  98  O 2   py       0.01429   0.03239   0.00770   0.02130  -0.01937  -0.02985
  99  O 2   pz       0.08051  -0.01169   0.03814   0.02096  -0.06743   0.14715
 100  O 2   dxx     -0.00544  -0.01076   0.02486   0.00664   0.00028  -0.00258
 101  O 2   dxy     -0.00035   0.00277   0.00446   0.00267  -0.00198  -0.00350
 102  O 2   dyy     -0.00002   0.00114   0.00025  -0.00001  -0.00200  -0.00186
 103  O 2   dxz      0.00520  -0.00259   0.00781   0.00290  -0.00512   0.00998
 104  O 2   dyz      0.00434   0.00212  -0.00011   0.00118  -0.00281   0.00231
 105  O 2   dzz      0.00807  -0.00011   0.00127   0.00074  -0.00566   0.01006
 106  O 3   s        0.02775   0.00740   0.03405  -0.03870  -0.02776   0.03728
 107  O 3   s       -0.05822  -0.01679  -0.06865   0.07976   0.05416  -0.07061
 108  O 3   px      -0.05859  -0.02304  -0.08875   0.10054   0.08314  -0.16206
 109  O 3   py      -0.00265   0.01139   0.03375  -0.10914  -0.04031   0.06166
 110  O 3   pz      -0.04034   0.00791  -0.06158   0.13080   0.05524  -0.05671
 111  O 3   s       -0.10322  -0.02329  -0.14127   0.13799   0.12388  -0.17756
 112  O 3   px      -0.03409  -0.01515  -0.04949   0.06370   0.04545  -0.09132
 113  O 3   py       0.00093   0.00722   0.02411  -0.06998  -0.02478   0.03454
 114  O 3   pz      -0.02494   0.00584  -0.03607   0.08505   0.03341  -0.02869
 115  O 3   dxx      0.00577   0.00216   0.00743  -0.00686  -0.00667   0.01193
 116  O 3   dxy     -0.00036  -0.00134  -0.00282   0.00698   0.00281  -0.00331
 117  O 3   dyy      0.00090   0.00010   0.00268  -0.00257  -0.00369   0.00484
 118  O 3   dxz      0.00398  -0.00012   0.00467  -0.00856  -0.00402   0.00345
 119  O 3   dyz     -0.00071  -0.00005  -0.00207   0.00438   0.00201  -0.00216
 120  O 3   dzz      0.00312  -0.00068   0.00470  -0.00664  -0.00368   0.00354
 121  O 4   s        0.01590   0.01475   0.03732  -0.05653  -0.01237  -0.02178
 122  O 4   s       -0.03383  -0.02944  -0.07940   0.11195   0.02706   0.04367
 123  O 4   px       0.02312  -0.01849   0.01790  -0.06120  -0.03641   0.06244
 124  O 4   py      -0.06422  -0.01660  -0.10413   0.16154   0.02124   0.12693
 125  O 4   pz       0.01244   0.03640   0.06673  -0.11304  -0.05338   0.00282
 126  O 4   s       -0.05045  -0.06420  -0.13115   0.24215   0.03553   0.09905
 127  O 4   px       0.01722  -0.01166   0.01485  -0.04158  -0.02432   0.04374
 128  O 4   py      -0.04252  -0.00658  -0.06584   0.09123   0.01542   0.07733
 129  O 4   pz       0.01037   0.02029   0.04198  -0.06590  -0.03767   0.00569
 130  O 4   dxx     -0.00106   0.00134   0.00052  -0.00460   0.00028  -0.00146
 131  O 4   dxy     -0.00091   0.00092  -0.00135   0.00447   0.00253  -0.00382
 132  O 4   dyy      0.00580   0.00176   0.00833  -0.01385  -0.00091  -0.00931
 133  O 4   dxz      0.00094  -0.00071   0.00121  -0.00350  -0.00121   0.00195
 134  O 4   dyz     -0.00316  -0.00197  -0.00551   0.00899   0.00301   0.00188
 135  O 4   dzz      0.00043   0.00358   0.00400  -0.00851  -0.00328   0.00129
 136  H 1   s       -0.09079   0.13050   0.10190   0.05498  -0.11943   0.00575
 137  H 1   s       -0.06952   0.11490   0.09194   0.05805  -0.10012   0.03175
 138  H 2   s       -0.16997  -0.13195  -0.01022  -0.06739   0.08111   0.09114
 139  H 2   s       -0.15896  -0.11965  -0.02092  -0.06290   0.10226   0.10485
 140  H 3   s        0.20615  -0.12721   0.01604   0.02955   0.06203  -0.08681
 141  H 3   s        0.21683  -0.12788   0.00085   0.03046   0.08254  -0.09727
 142  H 4   s       -0.03455  -0.05976  -0.01433  -0.13751  -0.13741  -0.13272
 143  H 4   s       -0.03187  -0.04936  -0.01334  -0.13149  -0.13459  -0.13461
 144  H 5   s       -0.00885   0.02186   0.03437   0.16643  -0.02911  -0.05757
 145  H 5   s       -0.01092   0.01541   0.01329   0.16285  -0.01425  -0.07444
 146  H 6   s        0.01804   0.11271   0.06729  -0.06888   0.21483   0.06932
 147  H 6   s        0.03810   0.12772   0.07318  -0.06551   0.22146   0.07261
                        25        26        27        28        29        30
 eigenvalues:         -0.033    -0.020    -0.007    -0.001     0.035     0.085
   1  C 1   s        0.01632   0.00281  -0.01101   0.03715  -0.04552  -0.02250
   2  C 1   s       -0.03468  -0.00468   0.02635  -0.08167   0.09912   0.03343
   3  C 1   px      -0.17191   0.02778   0.03085   0.00538  -0.00835  -0.16042
   4  C 1   py      -0.00927   0.01399  -0.05613   0.18238  -0.11117   0.17409
   5  C 1   pz       0.03649  -0.00092   0.11928  -0.02002  -0.29404   0.01387
   6  C 1   s       -0.05736  -0.01557   0.01625  -0.11286   0.18781   0.18619
   7  C 1   px      -0.09128  -0.01161  -0.02178   0.03042   0.00657  -0.10181
   8  C 1   py      -0.01717   0.01192  -0.00478   0.01817   0.00625   0.11566
   9  C 1   pz       0.01836  -0.04820   0.01122  -0.02319  -0.04585   0.01384
  10  C 1   dxx      0.00069  -0.00122  -0.00991   0.00842  -0.00908   0.00397
  11  C 1   dxy     -0.00968   0.00309   0.00501   0.00304  -0.00053  -0.00177
  12  C 1   dyy      0.00116   0.00246   0.00578   0.00510  -0.00245  -0.00719
  13  C 1   dxz      0.00594  -0.00406   0.00158   0.00501   0.00296   0.00233
  14  C 1   dyz      0.00029  -0.00042  -0.00038   0.00343   0.01185  -0.00491
  15  C 1   dzz      0.00234   0.00003   0.00344  -0.00404  -0.00268  -0.00102
  16  C 2   s       -0.02089   0.00657   0.02207  -0.00986   0.00694  -0.00593
  17  C 2   s        0.05101  -0.01938  -0.04810   0.01571  -0.00923   0.00852
  18  C 2   px       0.15725  -0.08250  -0.08050   0.03664  -0.02143   0.06883
  19  C 2   py      -0.02440  -0.10037   0.07508  -0.07880   0.01281  -0.09653
  20  C 2   pz       0.01435   0.12960  -0.10808   0.04989   0.02313  -0.04593
  21  C 2   s        0.04874  -0.03062  -0.12111   0.06990  -0.03302   0.03867
  22  C 2   px       0.04877  -0.01383   0.00072   0.03875  -0.06632  -0.01965
  23  C 2   py      -0.02357  -0.03360   0.07768  -0.06601  -0.02076   0.03135
  24  C 2   pz      -0.00254   0.11703  -0.02758   0.02558  -0.01509   0.01729
  25  C 2   dxx     -0.00874   0.00789   0.00342   0.00317   0.00721   0.02882
  26  C 2   dxy     -0.00397   0.01163  -0.00988   0.01141  -0.00139  -0.01774
  27  C 2   dyy      0.00614   0.00247  -0.00725   0.00032   0.00202  -0.01663
  28  C 2   dxz     -0.00214  -0.01063   0.01158  -0.00921  -0.01199  -0.00484
  29  C 2   dyz      0.00383  -0.00093  -0.00760   0.00313   0.00318  -0.01794
  30  C 2   dzz      0.00302  -0.01266   0.00457  -0.00626  -0.00394  -0.01439
  31  C 3   s       -0.00401   0.00081   0.01412   0.00677   0.00199   0.03579
  32  C 3   s        0.00893  -0.00102  -0.02978  -0.01405  -0.00018  -0.07233
  33  C 3   px      -0.07229   0.02786  -0.04518  -0.07326   0.01291   0.02281
  34  C 3   py      -0.02694   0.06748   0.01201   0.01240  -0.01442   0.16627
  35  C 3   pz      -0.02962  -0.05737   0.05575  -0.01984  -0.01213   0.12498
  36  C 3   s        0.02667  -0.01861  -0.09328  -0.04251  -0.00872  -0.24639
  37  C 3   px      -0.03932   0.00285  -0.04037  -0.01523   0.00106  -0.02846
  38  C 3   py      -0.01607   0.05197   0.00376   0.00520  -0.01052   0.13758
  39  C 3   pz      -0.01832  -0.02759   0.00315  -0.04464  -0.03453   0.08536
  40  C 3   dxx     -0.00221  -0.00183   0.00331  -0.00025   0.00112   0.00644
  41  C 3   dxy     -0.00450   0.00095   0.00114  -0.00210   0.00192   0.00040
  42  C 3   dyy      0.00196   0.00698  -0.00611   0.00336   0.00079  -0.00176
  43  C 3   dxz     -0.00694   0.00498  -0.00205  -0.00689   0.00098   0.00302
  44  C 3   dyz      0.00000  -0.00446   0.00051  -0.00223   0.00041  -0.00061
  45  C 3   dzz      0.00040  -0.00556   0.00340  -0.00203   0.00007  -0.00052
  46  C 4   s       -0.01528  -0.00353   0.00226  -0.01452   0.00901   0.00535
  47  C 4   s        0.03591   0.00598  -0.00685   0.02404  -0.01613  -0.00975
  48  C 4   px       0.13102  -0.17435  -0.16621  -0.12824   0.01700   0.03431
  49  C 4   py       0.22146   0.13889   0.19007  -0.05057   0.06048  -0.01496
  50  C 4   pz       0.03859  -0.17193   0.12462   0.23398   0.10543   0.00134
  51  C 4   s        0.02619   0.02545   0.01372   0.06516  -0.06414  -0.03527
  52  C 4   px       0.01614  -0.01705  -0.03491  -0.11449   0.00098   0.02393
  53  C 4   py       0.06324  -0.01411   0.04181   0.02733   0.08302   0.02704
  54  C 4   pz       0.02956   0.00222   0.13132   0.08739   0.03081  -0.03634
  55  C 4   dxx     -0.00502  -0.00544  -0.00651  -0.00146  -0.00072   0.00918
  56  C 4   dxy      0.00229   0.00043   0.00311  -0.00529   0.00512   0.00311
  57  C 4   dyy     -0.00259   0.00514   0.00893  -0.00232   0.00387  -0.00838
  58  C 4   dxz     -0.00009  -0.00342   0.00195   0.00860   0.00817  -0.00046
  59  C 4   dyz     -0.00077  -0.00349   0.00194   0.00433   0.01017   0.00242
  60  C 4   dzz     -0.00445   0.00069   0.00094   0.00087  -0.00092   0.00033
  61  C 5   s       -0.00558   0.00314  -0.00868   0.01443   0.01520  -0.00331
  62  C 5   s        0.01333  -0.00308   0.01519  -0.03052  -0.02719   0.00529
  63  C 5   px       0.26212   0.04063  -0.09064  -0.01925   0.00991   0.03351
  64  C 5   py       0.00937   0.00247   0.09428  -0.15546  -0.06810  -0.03571
  65  C 5   pz       0.00861   0.00804  -0.10882   0.07297   0.13952   0.01025
  66  C 5   s        0.02436  -0.01170   0.06510  -0.07793  -0.09459   0.01941
  67  C 5   px       0.12145   0.00346  -0.02577  -0.00111  -0.00178   0.01728
  68  C 5   py      -0.00840   0.00703   0.06150  -0.04487  -0.07522  -0.02813
  69  C 5   pz       0.01528  -0.00937  -0.08176   0.07012   0.11204   0.03872
  70  C 5   dxx      0.00719   0.00252  -0.00782   0.00607   0.00299   0.00196
  71  C 5   dxy     -0.01376  -0.00226   0.00553   0.00587  -0.00160  -0.00233
  72  C 5   dyy     -0.00584  -0.00047   0.00088   0.00671  -0.00289   0.00202
  73  C 5   dxz      0.01205   0.00148  -0.00604   0.00301   0.00048   0.00704
  74  C 5   dyz     -0.00542  -0.00108   0.00029  -0.00142   0.00557  -0.00484
  75  C 5   dzz     -0.00129   0.00081   0.00454  -0.01050   0.00403  -0.00468
  76  O 1   s       -0.01805  -0.00308  -0.00877  -0.03836   0.06537  -0.01621
  77  O 1   s        0.03428   0.00994   0.02101   0.07441  -0.11097   0.02907
  78  O 1   px      -0.07546   0.01817  -0.00433  -0.00462  -0.05299  -0.08810
  79  O 1   py      -0.05368  -0.00358  -0.06682  -0.08020   0.32948  -0.01107
  80  O 1   pz      -0.03533  -0.00997   0.02877  -0.16534   0.25214  -0.17775
  81  O 1   s        0.08281  -0.00493   0.02829   0.16082  -0.32244   0.08439
  82  O 1   px      -0.04552   0.01538  -0.00060  -0.01108  -0.03475  -0.04769
  83  O 1   py      -0.03008  -0.01127  -0.04621  -0.05118   0.20778  -0.00612
  84  O 1   pz      -0.01891  -0.00468   0.02158  -0.10423   0.15667  -0.11699
  85  O 1   dxx     -0.00124   0.00069  -0.00095  -0.00212   0.00821  -0.00242
  86  O 1   dxy     -0.00478   0.00177   0.00039  -0.00061  -0.00294  -0.00320
  87  O 1   dyy     -0.00505   0.00033  -0.00467  -0.00408   0.02394   0.00186
  88  O 1   dxz     -0.00337   0.00081   0.00033   0.00000  -0.00275  -0.00370
  89  O 1   dyz     -0.00273  -0.00058  -0.00135  -0.00673   0.01526  -0.00310
  90  O 1   dzz     -0.00338   0.00103   0.00522  -0.01374   0.01838  -0.00961
  91  O 2   s       -0.00946   0.00130   0.00295   0.00012   0.00241   0.00280
  92  O 2   s        0.01146  -0.00731  -0.01091  -0.00212   0.00147  -0.01342
  93  O 2   px      -0.05583  -0.04807   0.06179  -0.00815  -0.09488  -0.23048
  94  O 2   py      -0.10757  -0.15149   0.25273  -0.19978   0.02373   0.39061
  95  O 2   pz      -0.12432   0.28660  -0.09879   0.10493   0.13031   0.24893
  96  O 2   s        0.06634   0.02141   0.01864   0.00355  -0.05024  -0.00058
  97  O 2   px      -0.02511  -0.02510   0.05218  -0.00933  -0.07993  -0.17135
  98  O 2   py      -0.06448  -0.10414   0.17454  -0.13808   0.01395   0.29129
  99  O 2   pz      -0.08101   0.19719  -0.06856   0.07717   0.09187   0.18355
 100  O 2   dxx     -0.00091  -0.00634   0.00075  -0.00116  -0.00313  -0.01224
 101  O 2   dxy     -0.00420  -0.00807   0.01066  -0.00824  -0.00103   0.00500
 102  O 2   dyy     -0.00424  -0.00749   0.00470  -0.00599   0.00316   0.00330
 103  O 2   dxz     -0.00460   0.01115  -0.00406   0.00390   0.00208   0.00148
 104  O 2   dyz     -0.00364   0.00080   0.00358  -0.00265   0.00299   0.00864
 105  O 2   dzz     -0.00616   0.01048  -0.00826   0.00482   0.00748   0.00241
 106  O 3   s        0.02468  -0.04489  -0.02071   0.00855   0.00320   0.00099
 107  O 3   s       -0.04816   0.08696   0.04281  -0.01955  -0.00925  -0.00238
 108  O 3   px      -0.06104   0.25860   0.05655  -0.18575  -0.05742   0.01540
 109  O 3   py       0.16671  -0.05194   0.09246   0.00324   0.13084   0.06411
 110  O 3   pz      -0.03289   0.13991   0.24478   0.15095   0.06809  -0.06269
 111  O 3   s       -0.10660   0.18919   0.06735  -0.01599   0.00382   0.00482
 112  O 3   px      -0.03270   0.16466   0.04231  -0.12555  -0.04745   0.00567
 113  O 3   py       0.10733  -0.02669   0.06344   0.00298   0.08677   0.04516
 114  O 3   pz      -0.02002   0.08381   0.16091   0.09393   0.04803  -0.04152
 115  O 3   dxx      0.00330  -0.01594  -0.00041   0.01319   0.00288  -0.00136
 116  O 3   dxy     -0.00920   0.00224  -0.00628  -0.00294  -0.00603  -0.00154
 117  O 3   dyy      0.00711  -0.00253   0.00325  -0.00083   0.00177  -0.00015
 118  O 3   dxz      0.00108  -0.00778  -0.01102  -0.00345  -0.00218   0.00100
 119  O 3   dyz     -0.00662   0.00131   0.00019   0.00304  -0.00125  -0.00171
 120  O 3   dzz      0.00270  -0.00500  -0.01198  -0.00990  -0.00571   0.00153
 121  O 4   s        0.03517   0.04200   0.01601  -0.01906  -0.00199  -0.00004
 122  O 4   s       -0.06422  -0.08196  -0.03257   0.03471   0.00377  -0.00093
 123  O 4   px       0.11181  -0.04513  -0.08500  -0.17089  -0.00351   0.03456
 124  O 4   py      -0.09465  -0.24774  -0.00451   0.18541   0.11282   0.02389
 125  O 4   pz       0.18484   0.12337   0.23066   0.04125   0.09421  -0.06932
 126  O 4   s       -0.16885  -0.17398  -0.05208   0.08097  -0.00444  -0.01150
 127  O 4   px       0.07435  -0.03227  -0.05604  -0.10727  -0.00640   0.02326
 128  O 4   py      -0.05000  -0.15623  -0.00584   0.11790   0.07897   0.02036
 129  O 4   pz       0.11107   0.07520   0.14947   0.02777   0.06266  -0.05230
 130  O 4   dxx      0.00489   0.00153  -0.00134  -0.00318  -0.00016   0.00117
 131  O 4   dxy     -0.00576   0.00293   0.00590   0.00814   0.00140  -0.00083
 132  O 4   dyy      0.00474   0.01508  -0.00395  -0.01266  -0.00743  -0.00025
 133  O 4   dxz      0.00528  -0.00215  -0.00227  -0.00433   0.00107   0.00106
 134  O 4   dyz     -0.00864  -0.00770  -0.00855  -0.00011  -0.00145   0.00243
 135  O 4   dzz      0.01230   0.00492   0.01293   0.00409   0.00605  -0.00242
 136  H 1   s       -0.05724   0.00603  -0.00228  -0.05304   0.00974   0.04575
 137  H 1   s       -0.05362   0.00580   0.06603  -0.02817   0.04268   0.10789
 138  H 2   s        0.01151   0.06414  -0.02959   0.02265  -0.00757   0.00709
 139  H 2   s        0.00045   0.04582  -0.02108   0.03249  -0.01327   0.04604
 140  H 3   s        0.03495  -0.05701   0.04145   0.02767  -0.01342   0.00412
 141  H 3   s        0.02762  -0.06052   0.06215   0.06723   0.00439   0.05604
 142  H 4   s       -0.11154  -0.02111   0.00614   0.08407   0.00016   0.00805
 143  H 4   s       -0.11963  -0.01194  -0.00125   0.14672  -0.01835  -0.00405
 144  H 5   s        0.16968   0.02778  -0.09314   0.02541   0.02974   0.04108
 145  H 5   s        0.14354   0.05976  -0.10060   0.04475   0.02699   0.03405
 146  H 6   s       -0.05975  -0.00956   0.01663  -0.04545   0.03993  -0.03534
 147  H 6   s       -0.07301  -0.01143   0.02370  -0.06527   0.06641  -0.07507
                        31        32        33        34        35        36
 eigenvalues:          0.119     0.128     0.147     0.190     0.204     0.322
   1  C 1   s       -0.03006   0.00077  -0.00353  -0.00463   0.02494  -0.00315
   2  C 1   s        0.05403   0.00044   0.00373   0.00287  -0.02785   0.00617
   3  C 1   px       0.17994   0.01725  -0.02306  -0.04364  -0.11909  -0.00611
   4  C 1   py       0.15067   0.00049   0.03829   0.04016  -0.09195   0.03386
   5  C 1   pz       0.02822   0.00005  -0.02858  -0.03483  -0.00265  -0.02487
   6  C 1   s        0.19899  -0.01478   0.03667   0.06922  -0.27220   0.02134
   7  C 1   px       0.16899  -0.03674   0.01190   0.00866   0.03972  -0.00789
   8  C 1   py       0.12824   0.03153   0.00946  -0.08084  -0.06098   0.02348
   9  C 1   pz       0.02531  -0.03347   0.00912   0.05355  -0.10028   0.07017
  10  C 1   dxx      0.00104  -0.00003   0.00559   0.00882   0.00323   0.01286
  11  C 1   dxy     -0.00556   0.00144  -0.00063  -0.01859  -0.02544   0.00911
  12  C 1   dyy     -0.00649  -0.00289  -0.00576   0.02141  -0.01458  -0.00779
  13  C 1   dxz     -0.00938  -0.00008   0.00165  -0.00721  -0.02069  -0.01195
  14  C 1   dyz     -0.00266  -0.00036   0.00310   0.00554  -0.00504   0.01274
  15  C 1   dzz      0.00089   0.00266  -0.00096  -0.03195   0.01749  -0.00774
  16  C 2   s       -0.00368   0.00269  -0.00657  -0.04222  -0.02553   0.00458
  17  C 2   s        0.01098   0.00455   0.02685   0.08520   0.04395  -0.01098
  18  C 2   px       0.00554  -0.01426   0.02768   0.16177   0.07289  -0.11887
  19  C 2   py       0.00147   0.01341  -0.01822  -0.07560  -0.09079  -0.29955
  20  C 2   pz      -0.00628   0.01525   0.01237  -0.05374   0.03171   0.39997
  21  C 2   s       -0.00932  -0.04225  -0.00815   0.27567   0.27026  -0.04385
  22  C 2   px       0.04091  -0.04300   0.01194   0.16393   0.08533  -0.09159
  23  C 2   py      -0.00686   0.02435  -0.03636   0.05642  -0.03727  -0.28372
  24  C 2   pz       0.03555   0.00384   0.02077   0.07059   0.05608   0.34905
  25  C 2   dxx      0.00119  -0.00225   0.00043   0.00413  -0.00424  -0.00631
  26  C 2   dxy      0.00438   0.00056  -0.00565  -0.00255  -0.00612  -0.01213
  27  C 2   dyy     -0.00358   0.00275   0.00048  -0.00543  -0.00037  -0.01032
  28  C 2   dxz      0.00181   0.00200   0.00033  -0.00386   0.00196   0.00912
  29  C 2   dyz      0.00138   0.00186   0.00047  -0.00578  -0.00688   0.00114
  30  C 2   dzz     -0.00014   0.00295   0.00139  -0.00790   0.00220   0.01662
  31  C 3   s        0.00014  -0.00931  -0.00181   0.02266   0.00918  -0.00596
  32  C 3   s        0.00268   0.02724   0.00392  -0.03104  -0.01331   0.00354
  33  C 3   px      -0.01347   0.02249   0.00511   0.00271   0.00992  -0.02907
  34  C 3   py       0.00665  -0.00479   0.01365   0.07123   0.03219  -0.03383
  35  C 3   pz      -0.00390  -0.01782  -0.00658   0.04698   0.03364   0.04812
  36  C 3   s       -0.01328   0.05724   0.03208  -0.26266  -0.12056   0.09233
  37  C 3   px      -0.02014  -0.03439  -0.04283  -0.00784   0.01097  -0.11573
  38  C 3   py       0.01325  -0.01209   0.01045   0.13202   0.04659  -0.16836
  39  C 3   pz       0.00055   0.04317   0.00283   0.05706   0.05758   0.22217
  40  C 3   dxx     -0.00047  -0.00119  -0.00157   0.00179  -0.00017  -0.00524
  41  C 3   dxy     -0.00131  -0.00079  -0.00096  -0.00319  -0.00013   0.00113
  42  C 3   dyy      0.00114   0.00257   0.00268   0.00088   0.00288   0.02415
  43  C 3   dxz     -0.00075   0.00354   0.00273  -0.00310  -0.00086   0.00843
  44  C 3   dyz      0.00010   0.00009   0.00011  -0.00058  -0.00143  -0.01115
  45  C 3   dzz     -0.00010   0.00042  -0.00104   0.00266  -0.00087  -0.02141
  46  C 4   s        0.01123  -0.00075  -0.00105   0.00156   0.03058  -0.02009
  47  C 4   s       -0.03024  -0.00319   0.00391  -0.00110  -0.07339   0.05021
  48  C 4   px      -0.03658  -0.00421  -0.02269   0.00813   0.15476  -0.06907
  49  C 4   py      -0.01805  -0.00299   0.01457   0.00567   0.12053  -0.05420
  50  C 4   pz       0.01627  -0.00435  -0.01694  -0.00020  -0.01249  -0.00099
  51  C 4   s        0.03630   0.03644   0.00039  -0.00843  -0.18527   0.11483
  52  C 4   px       0.13557  -0.00330   0.05918   0.00164   0.03966  -0.02535
  53  C 4   py       0.09479  -0.00360  -0.05177  -0.00443  -0.01368  -0.03231
  54  C 4   pz      -0.00079   0.00377   0.05849   0.00166  -0.02429  -0.00254
  55  C 4   dxx      0.01403  -0.01539  -0.02300   0.00124  -0.01227   0.00050
  56  C 4   dxy      0.02935   0.02129   0.00479   0.00005  -0.01997   0.00232
  57  C 4   dyy      0.00580  -0.01886   0.02397  -0.00178   0.00053  -0.00027
  58  C 4   dxz     -0.01022   0.00722  -0.01599   0.00175   0.01283   0.00124
  59  C 4   dyz      0.01616  -0.00911  -0.01197  -0.00012  -0.00473   0.00492
  60  C 4   dzz     -0.00962   0.03367  -0.00083   0.00120   0.00641  -0.00098
  61  C 5   s       -0.00660  -0.00172   0.01556   0.04469  -0.02285   0.03740
  62  C 5   s        0.01400  -0.00860  -0.02367  -0.07677   0.03127  -0.07833
  63  C 5   px      -0.00370  -0.01320  -0.04686  -0.00961  -0.01763   0.00900
  64  C 5   py      -0.03263  -0.00514  -0.02468  -0.07248   0.02968  -0.07527
  65  C 5   pz      -0.00722  -0.02070   0.02210   0.16045  -0.09110   0.08461
  66  C 5   s        0.05139   0.04718  -0.14588  -0.37872   0.25483  -0.28390
  67  C 5   px      -0.00484   0.02102  -0.04999   0.01346  -0.10156  -0.09267
  68  C 5   py      -0.04732   0.05230   0.02189  -0.14718   0.06023  -0.07493
  69  C 5   pz       0.02639  -0.02359   0.02585   0.11655  -0.10494   0.10875
  70  C 5   dxx     -0.00027  -0.00109   0.00279   0.00119   0.00156   0.00650
  71  C 5   dxy      0.00278   0.00257   0.00396  -0.00382  -0.00398  -0.00851
  72  C 5   dyy      0.00460  -0.00045   0.00288   0.00083  -0.00140   0.00310
  73  C 5   dxz     -0.00290  -0.00077  -0.00119  -0.00086   0.00374   0.00829
  74  C 5   dyz     -0.00367  -0.00100  -0.00008   0.00496  -0.00410  -0.00564
  75  C 5   dzz     -0.00451  -0.00199  -0.00166   0.00523  -0.00325  -0.00508
  76  O 1   s       -0.00593   0.00007  -0.00033   0.00054   0.00009  -0.00403
  77  O 1   s        0.00295  -0.00205  -0.00023   0.00212   0.00901   0.00233
  78  O 1   px       0.27733  -0.00343  -0.01890   0.26779   0.43605  -0.02709
  79  O 1   py       0.05502   0.02741   0.04751  -0.34158   0.22276  -0.00248
  80  O 1   pz      -0.12774  -0.02546  -0.04644   0.34703  -0.13291   0.03491
  81  O 1   s        0.05492   0.00561   0.00343  -0.02346  -0.03054   0.05882
  82  O 1   px       0.19140  -0.00031  -0.01541   0.21976   0.35611  -0.02261
  83  O 1   py       0.04424   0.02247   0.03676  -0.27686   0.17799   0.01236
  84  O 1   pz      -0.08596  -0.01648  -0.03423   0.27012  -0.11386   0.04063
  85  O 1   dxx     -0.00408  -0.00132   0.00054  -0.00031   0.00076  -0.00171
  86  O 1   dxy      0.00818   0.00075  -0.00136   0.00622   0.00658   0.00055
  87  O 1   dyy      0.00186   0.00073   0.00215  -0.01167   0.00971  -0.00181
  88  O 1   dxz      0.00996   0.00025  -0.00053   0.00641   0.01027  -0.00139
[...]
    68   -7.493263153688e-02
    69    1.087548204976e-01
    70    6.499272648649e-03
    71    3.096035617017e-03
    72   -5.082579895374e-03
    73   -8.512861231859e-03
    74    8.285854997963e-03
    75   -5.642303474401e-03
    76   -4.025601608530e-03
    77    2.325416749465e-03
    78   -2.708736106909e-02
    79   -2.475195282901e-03
    80    3.490560077707e-02
    81    5.881677918572e-02
    82   -2.260903462956e-02
    83    1.236102300778e-02
    84    4.062967375904e-02
    85   -1.708516409679e-03
    86   -1.810571896693e-03
    87   -2.897895994722e-03
    88    5.468853885394e-04
    89   -1.393742378405e-03
    90    2.570252657521e-03
    91   -1.223173114131e-03
    92    3.540539298142e-03
    93    7.849437467400e-02
    94    2.113310331157e-01
    95   -2.836671835331e-01
    96    7.908458056416e-03
    97    8.514743486454e-02
    98    2.255190293143e-01
    99   -2.985095362555e-01
   100   -2.361091378791e-03
   101    4.960490381883e-05
   102    2.921179718782e-03
   103   -3.953321573315e-03
   104    6.188669625781e-03
   105   -4.077305213391e-04
   106    4.034066137325e-03
   107   -5.276661064679e-03
   108    3.937594634459e-02
   109    5.032842210314e-02
   110   -7.778509948007e-03
   111   -3.698493927425e-02
   112    4.624226509066e-02
   113    4.705824841674e-02
   114   -2.902902056966e-03
   115    8.929255873230e-04
   116    2.203283183805e-03
   117    1.913495246352e-03
   118   -2.287116910882e-04
   119   -2.609040094633e-04
   120    4.051209156409e-04
   121   -2.371628255097e-03
   122    1.242911334638e-02
   123   -5.783508513566e-02
   124    2.770045447362e-02
   125   -6.481453834337e-03
   126   -1.070910780244e-02
   127   -3.567737379207e-02
   128    3.316646218585e-02
   129   -1.173187062442e-03
   130   -1.588571382069e-03
   131    4.289210316343e-03
   132    3.293250126485e-03
   133    1.627693928636e-03
   134   -1.810432161115e-03
   135   -4.217991588174e-04
   136   -1.322967367367e-02
   137   -3.822767440942e-02
   138    8.548530022126e-02
   139    4.338431756607e-01
   140   -7.643160397744e-02
   141   -4.893148977871e-01
   142   -8.887492717027e-03
   143    6.432505123387e-03
   144    5.197151520435e-02
   145    2.346099894535e-01
   146   -3.286227427742e-02
   147   -3.237175666360e-02
Sym=X
Ene= 0.385148
Spin=Alpha
Occup=0
     1    1.286309953852e-02
     2   -3.566229005071e-02
     3    3.188310769800e-02
     4   -4.320367389345e-02
     5    6.887302617351e-03
     6    4.410303266445e-03
     7    1.583376262312e-02
     8    1.287329675849e-01
     9   -9.411497987845e-03
    10   -7.352980938718e-04
    11    4.891322070390e-04
    12    7.999874868210e-04
    13    3.951943517058e-04
    14    7.494875325916e-04
    15   -1.473306888760e-04
    16   -7.957674106373e-03
    17   -2.316543776398e-02
    18    1.129792380041e-05
    19    7.107543598217e-03
    20    1.743793612974e-02
    21    2.966824215093e-01
    22   -2.653040436942e-01
    23    5.315947825979e-02
    24   -2.231234469911e-02
    25   -2.298532777226e-03
    26   -1.871988688517e-03
    27    4.901970123303e-03
    28    8.956478470485e-03
    29    5.780472007340e-03
    30   -2.792530857488e-03
    31    1.282357935801e-01
    32   -1.218272193004e-01
    33    1.112101250317e-01
    34   -1.301668464933e-01
    35   -1.055404569680e-01
    36   -2.069412560555e+00
    37    3.965082143944e-01
    38   -3.545522622821e-01
    39   -1.343890257271e-01
    40    9.718741664204e-03
    41    1.541358637582e-02
    42    1.422763488309e-02
    43   -2.064524446710e-03
    44    1.881464766056e-03
    45   -8.879765070896e-03
    46   -1.193112386191e-03
    47   -4.707716098314e-03
    48    1.072259634699e-02
    49    7.673827774845e-03
    50   -7.925139737888e-03
    51    5.184889084944e-02
    52    1.342757644355e-01
    53    1.320897998195e-02
    54    1.708979848144e-02
    55   -1.130322547197e-03
    56    2.693793053691e-04
    57    4.572040246408e-03
    58   -1.644884559426e-03
    59   -3.716863419366e-03
    60    8.130432372571e-04
    61    5.224813250507e-02
    62   -5.742752377224e-02
    63    6.039736381253e-02
    64   -3.735292378986e-02
    65   -1.300259910226e-01
    66   -7.830548038593e-01
    67    9.778850787346e-02
    68   -6.433453378961e-02
    69   -3.679496677715e-01
    70    7.937538730479e-03
    71    7.728317783711e-03
    72    2.807763032017e-04
    73   -9.320069017001e-05
    74    2.237513440230e-03
    75   -1.235534561972e-03
    76    2.066493451518e-03
    77   -1.626770970908e-02
    78   -1.850455287273e-02
    79    4.347253590748e-02
    80   -3.391121359053e-02
    81    4.160196166463e-02
    82   -1.773407578318e-02
    83    3.923796333553e-02
    84   -1.768493625676e-02
    85   -2.437261872745e-03
    86   -4.048819160486e-03
    87   -2.978321746518e-03
    88    3.366784939100e-04
    89    4.631255512022e-04
    90   -1.466186926178e-03
    91    1.348556226387e-02
    92   -1.345676136432e-02
    93    1.561627613192e-02
    94   -1.519157485392e-02
    95   -2.890113707807e-02
    96   -2.579765832075e-01
    97   -6.409192957823e-02
    98   -4.956335271344e-02
    99   -6.620725858691e-02
   100   -5.798604810583e-04
   101    5.183559007209e-03
   102    5.563015428213e-03
   103   -4.286897149237e-03
   104   -6.264143770311e-03
   105   -4.206469749017e-03
   106    9.251291994719e-03
   107   -1.440518476354e-02
   108    2.310916214422e-02
   109   -2.123446315059e-04
   110   -1.156749411407e-02
   111   -1.183574067043e-01
   112    3.960096507213e-02
   113   -1.117973602033e-02
   114    2.599118168010e-02
   115    3.682741960866e-05
   116    2.910994100061e-03
   117    2.381747714588e-03
   118    3.270496055221e-04
   119   -3.019476967322e-03
   120    1.019949663582e-03
   121    9.158278778973e-03
   122   -3.257927717416e-02
   123    3.480089822931e-02
   124   -2.318418437480e-02
   125   -3.322332191588e-02
   126   -2.608202548420e-02
   127   -6.408499594208e-03
   128   -2.092523424485e-03
   129   -4.075827794803e-02
   130   -1.806199631003e-03
   131   -4.254611493913e-03
   132   -4.869448411740e-03
   133   -1.323331688925e-03
   134   -1.975606401669e-03
   135    3.967816570770e-03
   136    7.029932319605e-03
   137    5.192129872242e-01
   138    5.169521763235e-02
   139    1.130573073387e+00
   140    7.613292597119e-04
   141    1.229065083244e+00
   142    1.049150305014e-02
   143    2.737200355836e-01
   144    1.853434958974e-02
   145    2.557294806740e-01
   146   -1.030098888941e-02
   147    7.268511971346e-01
Sym=X
Ene= 0.427174
Spin=Alpha
Occup=0
     1   -2.739217801260e-03
     2    4.124470858973e-03
     3   -7.318019596375e-02
     4    9.374386150483e-03
     5    3.018762580869e-02
     6   -7.333695003350e-02
     7   -1.442622272004e-01
     8    7.424081923351e-02
     9    1.952015482004e-01
    10   -1.658618833135e-02
    11    3.566614319162e-03
    12    4.019781909229e-03
    13   -3.265766341262e-03
    14    7.378392881332e-03
    15    1.634326739436e-02
    16    1.579586037188e-02
    17   -1.927624684412e-02
    18   -2.779676017602e-02
    19   -3.597152393818e-03
    20    1.191930127082e-03
    21   -3.788695322202e-01
    22    1.959932765956e-01
    23   -3.706149455022e-02
    24    1.874747211078e-02
    25    1.118983131469e-03
    26   -3.469289871605e-04
    27   -4.951822697431e-03
    28   -6.284525596480e-03
    29   -9.130598292306e-04
    30    2.378888776360e-03
    31    7.744608351079e-03
    32   -2.547092358503e-02
    33   -1.726616887673e-01
    34    7.150812878833e-04
    35   -6.769487840295e-02
    36   -4.321646605712e-02
    37   -5.992294950788e-01
    38   -7.536241530913e-02
    39   -2.274464699248e-01
    40    7.015824554560e-03
    41   -2.991551258586e-03
    42   -4.970810918641e-03
    43   -4.568531715660e-03
    44    2.075995581956e-03
    45    5.698408858367e-04
    46    4.931368739433e-03
    47   -4.051384619783e-02
    48   -1.279653309061e-01
    49    2.414183421707e-01
    50    3.538710164514e-01
    51    1.249385551280e-01
    52   -9.626698573459e-02
    53    1.703337938643e-01
    54    3.353537602982e-01
    55    8.304819562215e-03
    56   -1.200272870007e-02
    57    4.192304159792e-03
    58   -8.503395451040e-03
    59   -1.232574953462e-02
    60   -6.937072868970e-03
    61    1.910694246420e-02
    62   -2.969821723783e-02
    63    3.009865974675e-02
    64    6.834443495787e-03
    65    4.120283569857e-02
    66   -2.545305575109e-01
    67    2.269372101423e-01
    68    7.961170778064e-02
    69    1.608772448989e-01
    70   -4.044649468457e-03
    71    7.858287190983e-03
    72   -1.253107932218e-03
    73    6.305244272983e-03
    74    2.229653578799e-03
    75   -1.729583025297e-03
    76   -1.859187528698e-02
    77    3.047161741279e-02
    78    1.062957867663e-01
    79    1.025481892053e-01
    80    4.122293464009e-02
    81    2.110349588759e-01
    82    1.045850323447e-01
    83    1.390720758192e-01
    84    8.130236826570e-02
    85   -8.580401356683e-03
    86   -1.628384052636e-03
    87   -2.271310687691e-03
    88   -1.462481472564e-03
    89    1.417936719821e-03
    90    5.081062214247e-03
    91   -7.423246428537e-03
    92   -1.228624661288e-02
    93    2.821843116615e-02
    94   -2.639829932056e-02
    95   -1.377110519248e-02
    96    2.235597234929e-01
    97    8.089555398227e-02
    98    1.020519938604e-02
    99    2.675884845241e-02
   100   -7.002923191656e-03
   101   -7.338719098809e-03
   102   -8.991594259865e-03
   103    1.639317054689e-03
   104    3.412002112903e-03
   105    3.281140521866e-03
   106    2.964666264483e-03
   107    3.268251221323e-03
   108    9.756772496147e-02
   109   -1.582061131565e-01
   110   -2.345523187577e-01
   111   -7.901616498601e-02
   112    1.269251357446e-01
   113   -1.659829436865e-01
   114   -2.217976292354e-01
   115    6.062232100200e-03
   116    2.899651814856e-03
   117   -1.889765520365e-03
   118   -5.200497092958e-03
   119   -8.676691877283e-03
   120   -5.982587063220e-04
   121    3.276076042786e-04
   122    1.004890014016e-02
   123    6.092146743797e-02
   124   -1.434622693852e-01
   125   -2.348918814697e-01
   126   -3.130102353851e-02
   127    7.541609642417e-02
   128   -1.431912559269e-01
   129   -2.581349319021e-01
   130    2.464737903288e-03
   131   -3.359196894507e-03
   132    1.188542274684e-02
   133    2.599438194539e-03
   134   -2.979312907258e-03
   135   -2.965496572130e-03
   136    3.710423774863e-02
   137    7.799199776392e-01
   138   -4.921672028512e-04
   139   -2.219815909022e-01
   140   -3.386322041245e-03
   141   -3.273038514340e-01
   142    4.109335130105e-02
   143    4.005682669560e-01
   144   -1.968755914458e-02
   145   -1.393980854288e-01
   146   -2.399349321010e-02
   147   -4.575851196277e-02
Sym=X
Ene= 0.446223
Spin=Alpha
Occup=0
     1    6.631327255169e-03
     2   -6.146721446730e-03
     3    1.226114208076e-02
     4   -9.453207420855e-03
     5    1.548152790268e-02
     6   -9.831032171662e-02
     7    1.821234799899e-02
     8    7.030921747371e-02
     9    8.318056917780e-02
    10   -3.669709786223e-03
    11    2.556064476381e-03
    12   -4.457038018376e-03
    13    3.781093699933e-03
    14   -2.333335046562e-03
    15    1.078119294514e-02
    16    3.055374665856e-03
    17    7.952142622629e-04
    18   -2.556478607095e-02
    19   -4.167664485916e-02
    20    1.328697953909e-01
    21   -4.570557372909e-02
    22   -3.249614346709e-02
    23   -5.682774766959e-02
    24    2.612532897129e-01
    25    1.787874872049e-03
    26    3.768692756129e-04
    27   -9.297548303218e-04
    28    9.550148697561e-03
    29    8.247211051689e-03
    30    1.858666936447e-03
    31    2.509593372584e-02
    32   -1.360621506206e-02
    33    2.480443960248e-01
    34    6.982890653415e-02
    35   -1.450507954246e-01
    36   -4.735140768414e-01
    37    7.574970907884e-01
    38    3.343197847916e-01
    39   -4.541225014460e-01
    40    5.141084104603e-03
    41    8.324601429490e-03
    42   -6.779784610173e-03
    43    3.030405072712e-03
    44   -6.521404866778e-03
    45    2.642234766294e-03
    46   -8.341499808879e-03
    47    2.560050725877e-02
    48   -8.147278589817e-02
    49    4.504922079920e-02
    50    1.178144192864e-01
    51    4.572656780180e-03
    52   -8.757046139366e-02
    53    2.543116205885e-02
    54    1.179339276967e-01
    55    2.372604292043e-03
    56   -4.401825071036e-03
    57    1.785733290015e-04
    58   -8.764606770764e-04
    59   -4.838593094335e-03
    60   -1.470018532106e-03
    61   -7.312632148153e-02
    62    6.229001063027e-02
    63   -8.044670599779e-02
    64   -8.638042059726e-02
    65    1.560285554643e-01
    66    1.280179657868e+00
    67   -2.970425307143e-01
    68   -2.453485711241e-01
    69    2.948691331457e-01
    70   -6.284834635115e-03
    71   -1.004151217651e-02
    72   -6.207528994274e-03
    73   -1.051039255328e-03
    74   -2.873833031799e-04
    75   -5.540467116708e-03
    76   -1.742044777423e-02
    77    4.297956719064e-02
    78   -1.717723767591e-02
    79    2.654896616542e-02
    80    4.845849289036e-02
    81    1.425556279769e-01
    82   -2.968892121570e-02
    83    5.840098861086e-02
    84    7.956026585297e-02
    85   -1.480565635867e-03
    86   -2.988124269444e-04
    87    4.541351662781e-03
    88   -1.514949374039e-03
    89   -1.150906125907e-03
    90    6.414016122646e-03
    91   -1.188963402650e-02
    92    2.722009048612e-02
    93    6.398481271397e-02
    94    4.645976451969e-02
    95   -5.791517259472e-02
    96    1.093700869943e-01
    97    9.304846303027e-02
    98    7.776296703970e-02
    99   -6.297284425099e-02
   100   -2.382664418427e-04
   101   -5.129285779832e-03
   102    1.606393337133e-03
   103    5.110800823292e-04
   104    2.899838367477e-03
   105    9.789907910770e-04
   106   -5.522993312431e-03
   107    2.143929486882e-02
   108    1.750967687227e-02
   109   -5.267071469474e-02
   110   -3.057020039329e-02
   111    1.814552473285e-02
   112    2.173615732098e-02
   113   -4.949986766930e-02
   114   -6.080160499598e-02
   115    7.103800787117e-03
   116    1.395025975897e-03
   117   -5.668062629227e-04
   118   -1.824540279322e-03
   119    5.654582068138e-04
   120    1.375695438072e-04
   121    1.382188373228e-03
   122   -5.570559665762e-03
   123    5.970790269779e-02
   124   -4.342391620264e-02
   125   -8.288899796842e-02
   126    1.542958054547e-02
   127    7.476101198102e-02
   128   -5.026308127953e-02
   129   -7.717864036052e-02
   130    1.062600102326e-03
   131   -1.528314016407e-03
   132    1.942903793997e-03
   133   -1.378015190815e-03
   134   -3.129470498406e-03
   135   -2.359688729972e-03
   136   -1.559180091933e-02
   137   -5.137635337135e-01
   138   -9.546764090175e-03
   139   -2.886526732191e-01
   140    5.823271235709e-02
   141    1.416670679700e+00
   142   -3.181378535696e-02
   143   -9.086910676984e-01
   144    6.034259564744e-03
   145   -3.169932890459e-01
   146   -3.528812881272e-02
   147   -7.710593343889e-01
Sym=X
Ene= 0.450949
Spin=Alpha
Occup=0
     1    1.453776724504e-02
     2    7.616977932539e-03
     3    2.764062991548e-02
     4    3.492972042573e-02
     5   -4.582899629481e-02
     6   -3.408998186981e-01
     7   -8.705983941353e-03
     8    1.534718832044e-02
     9   -9.180486616201e-02
    10   -4.658848080781e-03
    11    6.264229494343e-03
    12    8.405839524882e-05
    13   -3.579604958554e-03
    14    5.179520044799e-03
    15    1.920772893475e-03
    16   -7.643624624657e-03
    17    8.321102255414e-03
    18    2.908477265761e-02
    19    5.931495026394e-02
    20   -4.766179169248e-02
    21    1.130083055112e-01
    22    1.646209725665e-01
    23    2.336839110476e-01
    24   -1.071315040336e-01
    25    5.158231038352e-04
    26   -7.747432824376e-03
    27    4.934764109305e-03
    28    2.641126475495e-03
    29   -3.195276495518e-03
    30    2.503977177874e-03
    31    3.542052251739e-02
    32   -3.804397571614e-02
    33   -2.985407522505e-02
    34   -2.377189480624e-01
    35    2.613299777153e-01
    36   -6.560983332906e-01
    37   -1.450726765548e-01
    38   -6.625883607932e-01
    39    8.517217047165e-01
    40    1.361787172260e-03
    41   -3.255798603624e-03
    42    7.982624892526e-03
    43   -1.315646491372e-03
    44   -2.707852497502e-03
    45    2.823578315562e-03
    46    2.217024190481e-03
    47   -5.352759995706e-03
    48   -2.262435651872e-02
    49    4.261362811189e-02
    50    4.272888649879e-02
    51   -1.237659958660e-02
    52   -1.118780246446e-01
    53    7.551279599231e-03
    54    3.487755502277e-02
    55   -1.529653844030e-04
    56    6.843417466884e-04
    57   -1.398181487255e-04
    58    3.114441271820e-03
    59   -9.893906991241e-04
    60   -4.415755347243e-03
    61   -8.960073872192e-02
    62    7.278919410914e-02
    63   -3.690930883975e-03
    64   -9.669011266517e-02
    65    8.425829736939e-02
    66    1.532252393128e+00
    67    6.221380109980e-02
    68   -1.438679596302e-01
    69    1.003411376462e-01
    70   -1.350809730159e-02
    71   -2.869710806880e-03
    72   -1.330570259839e-02
    73    1.522782357885e-03
    74   -3.211278023530e-03
    75    1.092109336138e-03
    76   -7.353511298909e-03
    77    1.982283496504e-02
    78   -1.123088342773e-02
    79   -2.805880648533e-02
    80    4.882612333692e-02
    81    5.640286425120e-02
    82   -1.607111627372e-02
    83   -4.910251082089e-03
    84    6.454761394754e-02
    85   -1.636915486930e-03
    86    2.090285748689e-03
    87    2.858369017331e-03
    88   -1.504454421308e-03
    89    1.091318951291e-03
    90    2.310998625009e-03
    91   -5.813046051161e-03
    92    2.723663865882e-03
    93   -1.196669025397e-02
    94   -6.922926641877e-02
    95    7.530527023468e-02
    96    1.062133099522e-01
    97    1.485646239441e-02
    98   -5.736522329697e-02
    99    9.240391631061e-02
   100   -1.468533539726e-03
   101   -4.743683857353e-03
   102   -3.783183116151e-03
   103    2.302128697499e-03
   104    1.211488495525e-03
   105   -8.899882112208e-05
   106   -1.093542283827e-02
   107    2.064702841350e-02
   108   -8.827687445440e-03
   109   -5.993042647821e-02
   110   -3.890170479287e-03
   111    9.932578897792e-02
   112   -3.278237095675e-02
   113   -4.310746656865e-02
   114   -3.565043107881e-02
   115    1.988138092779e-03
   116   -4.221046088070e-03
   117   -3.903041580439e-03
   118   -1.666018291652e-03
   119    1.612132587905e-03
   120    3.964653498002e-04
   121   -1.552826821133e-04
   122   -6.891133449428e-03
   123    4.259255202346e-02
   124   -2.160861552566e-02
   125   -5.767257170263e-03
   126    1.476379041353e-02
   127    4.173828891766e-02
   128   -7.422503692597e-03
   129   -1.407944626479e-02
   130   -2.123452410549e-03
   131   -5.387073675356e-03
   132   -3.905085639416e-03
   133   -1.256530992161e-03
   134    2.898788795492e-03
   135   -1.034506292110e-03
   136   -6.073538129701e-03
   137   -1.962094142242e-02
   138    2.749767371488e-02
   139    1.599227515262e+00
   140   -3.964948054737e-03
   141   -7.262158686714e-01
   142    7.998030758135e-03
   143   -6.822306574210e-01
   144   -3.085590841921e-02
   145   -7.558595144124e-01
   146   -1.322105380629e-05
   147   -6.194807470442e-01

======= END OF MOLDEN-FORMATTED INPUT FILE =======


        *************************************************************
        *                                                           *
        *  Thank you very much for using Q-Chem.  Have a nice day.  *
        *                                                           *
        *************************************************************


0 sent ACK to 0 
now end server 0 ... 
cleanup process ... done
