
Running Job 1 of 1 molden_ts.qcin
qchem molden_ts.qcin_18396.0 /tmp/molden_ts.qcin/ 1
/programs/x86_64/lib/qchem-4.3.2/bin/mpi/mpirun_qchem -machinefile /var/spool/torque/aux//123221.vali -np 1 /programs/x86_64/lib/qchem-4.3.2/exe/qcprog.exe molden_ts.qcin_18396.0 /tmp/molden_ts.qcin/

Process 0 of 1 is on bt2600-16.csail.mit.edu - thread support 0
initial socket setup ...start
initial socket setup ...done 
now start server 0 ... 

cmd = ssh thor /programs/x86_64/lib/qchem-4.3.2/bin/get_hostid 1012046711 > /tmp/molden_ts.qcin/lic.dat
                  Welcome to Q-Chem
     A Quantum Leap Into The Future Of Chemistry


 Q-Chem 4.3, Q-Chem, Inc., Pleasanton, CA (2015)

 Y. Shao,  Z. Gan,  E. Epifanovsky,  A. T. B. Gilbert,  M. Wormit,  
 J. Kussmann,  A. W. Lange,  A. Behn,  J. Deng,  X. Feng,  D. Ghosh,  
 M. Goldey,  P. R. Horn,  L. D. Jacobson,  I. Kaliman,  R. Z. Khaliullin,  
 T. Kus,  A. Landau,  J. Liu,  E. I. Proynov,  Y. M. Rhee,  R. M. Richard,  
 M. A. Rohrdanz,  R. P. Steele,  E. J. Sundstrom,  H. L. Woodcock III,  
 P. M. Zimmerman,  D. Zuev,  B. Albrecht,  E. Alguire,  B. Austin,  
 S. A. Baeppler,  G. J. O. Beran,  Y. A. Bernard,  E. Berquist,  
 K. Brandhorst,  K. B. Bravaya,  S. T. Brown,  D. Casanova,  C.-M. Chang,  
 Y. Chen,  S. H. Chien,  K. D. Closser,  D. L. Crittenden,  M. Diedenhofen,  
 R. A. DiStasio Jr.,  H. Do,  A. D. Dutoi,  R. G. Edgar,  P.-T. Fang,  
 S. Fatehi,  Q. Feng,  L. Fusti-Molnar,  A. Ghysels,  
 A. Golubeva-Zadorozhnaya,  J. Gomes,  A. Gunina,  M. W. D. Hanson-Heine,  
 P. H. P. Harbach,  A. W. Hauser,  E. G. Hohenstein,  Z. C. Holden,  K. Hui,  
 T.-C. Jagau,  H. Ji,  B. Kaduk,  K. Khistyaev,  Jaehoon Kim,  Jihan Kim,  
 R. A. King,  P. Klunzinger,  D. Kosenkov,  T. Kowalczyk,  C. M. Krauter,  
 K. U. Lao,  A. Laurent,  K. V. Lawler,  S. Lehtola,  S. V. Levchenko,  
 C. Y. Lin,  Y.-S. Lin,  F. Liu,  E. Livshits,  R. C. Lochan,  A. Luenser,  
 P. Manohar,  S. F. Manzer,  S.-P. Mao,  N. Mardirossian,  A. V. Marenich,  
 L. A. Martinez-Martinez,  S. A. Maurer,  N. J. Mayhall,  K. Nanda,  
 C. M. Oana,  R. Olivares-Amaya,  D. P. O'Neill,  J. A. Parkhill,  
 T. M. Perrine,  R. Peverati,  P. A. Pieniazek,  F. Plasser,  A. Prociuk,  
 D. R. Rehn,  E. Rosta,  N. J. Russ,  N. Sergueev,  S. M. Sharada,  
 S. Sharma,  D. W. Small,  A. Sodt,  T. Stauch,  T. Stein,  D. Stuck,  
 Y.-C. Su,  A. J. W. Thom,  T. Tsuchimochi,  L. Vogt,  O. Vydrov,  T. Wang,  
 M. A. Watson,  J. Wenzel,  A. White,  C. F. Williams,  V. Vanovschi,  
 S. Yeganeh,  S. R. Yost,  Z.-Q. You,  I. Y. Zhang,  X. Zhang,  Y. Zhao,  
 B. R. Brooks,  G. K. L. Chan,  D. M. Chipman,  C. J. Cramer,  
 W. A. Goddard III,  M. S. Gordon,  W. J. Hehre,  A. Klamt,  
 H. F. Schaefer III,  M. W. Schmidt,  C. D. Sherrill,  D. G. Truhlar,  
 A. Warshel,  X. Xu,  A. Aspuru-Guzik,  R. Baer,  A. T. Bell,  N. A. Besley,  
 J.-D. Chai,  A. Dreuw,  B. D. Dunietz,  T. R. Furlani,  S. R. Gwaltney,  
 C.-P. Hsu,  Y. Jung,  J. Kong,  D. S. Lambrecht,  W. Liang,  C. Ochsenfeld,  
 V. A. Rassolov,  L. V. Slipchenko,  J. E. Subotnik,  T. Van Voorhis,  
 J. M. Herbert,  A. I. Krylov,  P. M. W. Gill,  M. Head-Gordon

 Contributors to earlier versions of Q-Chem not listed above: 
 R. D. Adamson,  J. Baker,  E. F. C. Byrd,  A. K. Chakraborty,  C.-L. Cheng,  
 H. Dachsel,  R. J. Doerksen,  G. Hawkins,  A. Heyden,  S. Hirata,  
 G. Kedziora,  F. J. Keil,  C. Kelley,  P. P. Korambath,  W. Kurlancheek,  
 A. M. Lee,  M. S. Lee,  D. Liotard,  I. Lotan,  P. E. Maslen,  N. Nair,  
 D. Neuhauser,  R. Olson,  B. Peters,  J. Ritchie,  N. E. Schultz,  
 N. Shenvi,  A. C. Simmonett,  K. S. Thanthiriwatte,  Q. Wu,  W. Zhang

 Please cite Q-Chem as follows:
 Y. Shao et al., Mol. Phys. 113, 184-215 (2015)
 DOI: 10.1080/00268976.2014.952696

 Q-Chem 4.3.0 for Intel X86 Linux

 Parts of Q-Chem use Armadillo 5.200.1 (Boston Tea Smuggler).
 http://arma.sourceforge.net/

 Q-Chem begins on Fri Jun 23 16:22:47 2017  

Host: 
0

     Scratch files written to /tmp/molden_ts.qcin//
 Oct1215 13750_ 19228  19214 4150   
 Parallel job on  1  processors
Processing $rem in /programs/x86_64/lib/qchem-4.3.2/config/preferences.
 MEM_TOTAL  2000 

Checking the input file for inconsistencies... 	...done.

--------------------------------------------------------------
User input:
--------------------------------------------------------------
$molecule
-2 1
C
O  1 1.266166
C  1 1.501701 2 121.942692
O  3 1.253523 1 124.466424 2 2.481059 0
C  3 1.535840 1 118.144822 2 -171.911579 0
H  5 1.092857 3 113.598303 1 -18.094820 0
H  5 1.099114 3 108.067065 1 101.564700 0
H  5 1.100575 3 108.683140 1 -140.953714 0
C  1 1.580999 2 117.021145 3 -157.215339 0
O  9 1.262592 1 119.509853 2 -76.735683 0
O  9 1.270833 1 113.491741 2 99.649612 0
C  1 2.078293 2 107.888271 3 84.219046 0
H  12 1.092352 1 98.300440 2 -32.861421 0
H  12 1.092402 1 91.513803 2 81.657851 0
H  12 1.100580 1 126.448085 2 -159.194350 0
$end

$rem
EXCHANGE         B3LYP
BASIS            6-31+G(d)
PRINT_ORBITALS   true
MOLDEN_FORMAT    true
--------------------------------------------------------------
 ----------------------------------------------------------------
             Standard Nuclear Orientation (Angstroms)
    I     Atom           X                Y                Z
 ----------------------------------------------------------------
    1      C       0.0797945966    -0.4909783694    -0.4223075321
    2      O       0.1313474063    -1.4572744400    -1.2388799730
    3      C      -1.1864532086     0.2798716911    -0.1824897396
    4      O      -2.2889245969     0.0175537506    -0.7182751888
    5      C      -1.1098133330     1.5491098778     0.6788843141
    6      H      -0.2072507241     1.6077002662     1.2923045011
    7      H      -1.1176993056     2.4184439439     0.0063906875
    8      H      -2.0042769838     1.5956880274     1.3184393032
    9      C       1.4423313860     0.2349101035    -0.0815183592
   10      O       2.2586348364    -0.3142909509     0.7097877997
   11      O       1.6143739870     1.3173156007    -0.7248038300
   12      C      -0.6241447946    -1.2240138460     1.3905438455
   13      H      -1.2884339969    -1.9983756046     1.0002662336
   14      H       0.3695936068    -1.5869677565     1.6627396904
   15      H      -1.0856735372    -0.6363173016     2.1985539493
 ----------------------------------------------------------------
 Molecular Point Group                 C1    NOp =  1
 Largest Abelian Subgroup              C1    NOp =  1
 Nuclear Repulsion Energy =   448.3253641179 hartrees
 There are       35 alpha and       35 beta electrons
 Requested basis set is 6-31+G(d)
 There are 57 shells and 183 basis functions

 Total QAlloc Memory Limit   2000 MB
 Mega-Array Size        61 MB
 MEM_STATIC part        62 MB

                       Distance Matrix (Angstroms)
             C (  1)   O (  2)   C (  3)   O (  4)   C (  5)   H (  6)
   O (  2)  1.266166
   C (  3)  1.501701  2.422857
   O (  4)  2.440703  2.881643  1.253523
   C (  5)  2.605715  3.775797  1.535840  2.384957
   H (  6)  2.725205  3.989438  2.212913  3.302175  1.092857
   H (  7)  3.175297  4.258170  2.147998  2.767884  1.099114  1.771947
   H (  8)  3.424577  4.518999  2.157081  2.592246  1.100575  1.797256
   C (  9)  1.580999  2.433445  2.631107  3.791434  2.969642  2.548149
   O ( 10)  2.461748  3.103074  3.608022  4.778052  3.849631  3.180246
   O ( 11)  2.390892  3.187788  3.035626  4.114020  3.073315  2.733380
   C ( 12)  2.078293  2.745733  2.247732  2.959747  2.903885  2.863923
   H ( 13)  2.483548  2.705983  2.568993  2.831667  3.566489  3.775980
   H ( 14)  2.373310  2.914271  3.051433  3.912984  3.604386  3.267396
   H ( 15)  2.871995  3.737788  2.553219  3.222305  2.661967  2.574593
             H (  7)   H (  8)   C (  9)   O ( 10)   O ( 11)   C ( 12)
   H (  8)  1.784494
   C (  9)  3.365903  3.961150
   O ( 10)  4.400255  4.710721  1.262592
   O ( 11)  3.035021  4.164969  1.270833  2.266112
   C ( 12)  3.927719  3.140172  2.926730  3.098620  3.992996
   H ( 13)  4.530478  3.678445  3.689838  3.937285  4.732438  1.092352
   H ( 14)  4.582451  3.985361  2.740883  2.469069  3.960392  1.092402
   H ( 15)  3.760076  2.569101  3.514054  3.674850  4.433166  1.100580
             H ( 13)   H ( 14)
   H ( 14)  1.832262
   H ( 15)  1.825434  1.818966
 
 A cutoff of  1.0D-08 yielded   1480 shell pairs
 There are     16035 function pairs
 
 -------------------------------------------------------
 OpenMP Integral Computing Module                       
 Release: version 1.0, May 2013, Q-Chem Inc. Pittsburgh 
 -------------------------------------------------------
 Integral Job Info:
 Integral job number is                      11
 Integral operator is                         1
 short-range coefficients                     0
 long-range coefficients              100000000
 Omega coefficients                           0
 if combine SR and LR in K                    0
 Integral screening is                        0
 Integral computing path is                   2
 max size of driver memory is            800000
 size of driver memory is                593474
 size of scratch memory is              2260544
 max col of scratch BK array               1296
 max len of scratch array in speh3          155
 max len of scratch index in speh4           18
 max int batch size is                      520
 min int batch size is                       52
 fixed nKL is                                52
 max L of basis functions is                  2
 order of int derivative is                   0
 number of shells is                         57
 number of basis is                         183
 number of cartesian basis is               183
 number of contracted shell pairs          1480
 number of primitive shell pairs           4902
 maxK2 (contraction) of shell pair           36
 max number of K2 of shell pair               1
 max number of CS2 of shell pair            180
 max number of PS2 of shell pair           1080
 mem total for path MDJ                   43256
 -------------------------------------------------------
 Smallest overlap matrix eigenvalue = 1.90E-05

 Q-Chem warning in module /home/scratch/svnadmin/13750_zgan/qchem/stvman/mkSTV.C, line 251:

 Overlap eigenvalue is smaller than square root of threshold


 Scale SEOQF with 1.000000e-01/1.000000e-01/1.000000e-01

 Standard Electronic Orientation quadrupole field applied
 Nucleus-field energy     =     0.0000000049 hartrees
 Guess from superposition of atomic densities
 Warning:  Energy on first SCF cycle will be non-variational
 A restricted hybrid HF-DFT SCF calculation will be
 performed using Pulay DIIS extrapolation
 Exchange:     0.2000 Hartree-Fock + 0.0800 Slater + 0.7200 B88
 Correlation:  0.1900 VWN1RPA + 0.8100 LYP
 Using SG-1 standard quadrature grid
 SCF converges when DIIS error is below 1.0E-05
 CPU 0.00 s  wall 0.00 s
 Inaccurate integrated density:
   Number of electrons =    70
   Numerical integral  =    68.000657886444
   Relative error      =    -2.8562030194 %
 CPU 4.51 s  wall 5.70 s
 ---------------------------------------
  Cycle       Energy         DIIS Error
 ---------------------------------------
    1    -496.0858609106      4.81E-02
 CPU 0.00 s  wall 0.00 s
 CPU 4.71 s  wall 4.71 s
    2    -494.5812649348      1.04E-02
 CPU 0.00 s  wall 0.00 s
 CPU 4.72 s  wall 4.72 s
    3    -491.6330549547      2.55E-02
 CPU 0.00 s  wall 0.00 s
 CPU 4.71 s  wall 4.71 s
    4    -494.7229399946      7.94E-03
 CPU 0.00 s  wall 0.00 s
 CPU 4.63 s  wall 4.63 s
    5    -494.9770948319      1.17E-03
 CPU 0.00 s  wall 0.00 s
 CPU 4.60 s  wall 4.60 s
    6    -494.9829317758      8.81E-04
 CPU 0.00 s  wall 0.00 s
 CPU 4.52 s  wall 4.52 s
    7    -494.9858076350      3.69E-04
 CPU 0.00 s  wall 0.00 s
 CPU 4.43 s  wall 4.43 s
    8    -494.9862380011      1.98E-04
 CPU 0.00 s  wall 0.00 s
 CPU 4.32 s  wall 4.32 s
    9    -494.9863742218      4.11E-05
 CPU 0.00 s  wall 0.00 s
 CPU 4.07 s  wall 4.07 s
   10    -494.9863785957      2.08E-05
 CPU 0.00 s  wall 0.00 s
 CPU 3.87 s  wall 3.87 s
   11    -494.9863797361      6.07E-06 Convergence criterion met
 ---------------------------------------
 SCF time:  CPU 154.00 s  wall 149.48 s
 SCF   energy in the final basis set = -494.9863797361
 Total energy in the final basis set = -494.9863797361
 
 --------------------------------------------------------------
 
                    Orbital Energies (a.u.)
 --------------------------------------------------------------
 
 Alpha MOs
 -- Occupied --
-18.821 -18.789 -18.788 -18.786  -9.967  -9.963  -9.943  -9.911
 -9.881  -0.716  -0.707  -0.663  -0.622  -0.461  -0.388  -0.336
 -0.242  -0.180  -0.157  -0.144  -0.136  -0.113  -0.108  -0.098
 -0.094  -0.083  -0.067  -0.058  -0.009   0.031   0.044   0.058
  0.075   0.104   0.111
 -- Virtual --
  0.225   0.243   0.266   0.277   0.279   0.299   0.302   0.308
  0.310   0.327   0.331   0.340   0.341   0.350   0.353   0.364
  0.373   0.384   0.392   0.399   0.407   0.433   0.465   0.483
  0.494   0.501   0.516   0.527   0.532   0.549   0.552   0.556
  0.564   0.571   0.579   0.591   0.595   0.598   0.612   0.620
  0.627   0.632   0.643   0.655   0.666   0.689   0.693   0.733
  0.743   0.792   0.840   0.845   0.943   0.965   0.995   1.010
  1.025   1.064   1.087   1.102   1.118   1.134   1.159   1.175
  1.212   1.225   1.255   1.286   1.296   1.315   1.337   1.371
  1.419   1.446   1.476   1.482   1.524   1.563   1.599   1.606
  1.613   1.634   1.640   1.658   1.668   1.680   1.685   1.718
  1.740   1.756   1.775   1.817   1.879   1.901   1.905   1.941
  1.976   1.997   2.032   2.062   2.093   2.097   2.144   2.164
  2.172   2.215   2.239   2.250   2.265   2.290   2.313   2.344
  2.365   2.381   2.422   2.439   2.470   2.532   2.566   2.584
  2.601   2.615   2.656   2.699   2.709   2.767   2.832   2.910
  2.970   2.998   3.046   3.070   3.201   3.272   3.408   3.417
  3.432   3.510   3.595   4.481   4.529   4.593   4.682   4.710
  4.774   4.848   4.938   5.116
 --------------------------------------------------------------
 

                        RESTRICTED (RHF) MOLECULAR ORBITAL COEFFICIENTS
                         1         2         3         4         5         6
 eigenvalues:        -18.821   -18.789   -18.788   -18.786    -9.967    -9.963
   1  C 1   s        0.00001  -0.00001   0.00000  -0.00002   0.00550   0.00393
   2  C 1   s        0.00006   0.00002   0.00004   0.00035   0.00025   0.00022
   3  C 1   px       0.00000   0.00000  -0.00001   0.00002   0.00000  -0.00008
   4  C 1   py       0.00000   0.00000   0.00003  -0.00028  -0.00003   0.00002
   5  C 1   pz      -0.00001   0.00001   0.00000  -0.00024   0.00008   0.00000
   6  C 1   s       -0.00031   0.00043  -0.00019   0.00004   0.00315   0.00152
   7  C 1   px       0.00011  -0.00008   0.00017   0.00003  -0.00178   0.00231
   8  C 1   py      -0.00019   0.00020   0.00004   0.00062   0.00273   0.00139
   9  C 1   pz      -0.00010  -0.00009   0.00038   0.00055   0.00129   0.00094
  10  C 1   s       -0.00878  -0.00917  -0.00009   0.03124   0.03506  -0.00245
  11  C 1   px       0.00194   0.00043  -0.00321  -0.00549  -0.00013  -0.00169
  12  C 1   py      -0.00206  -0.00242   0.00109  -0.00045   0.00579  -0.00079
  13  C 1   pz       0.00100   0.00174  -0.00002   0.00163   0.00730  -0.00058
  14  C 1   dxx     -0.00002  -0.00004  -0.00003  -0.00013  -0.00028  -0.00031
  15  C 1   dxy     -0.00002  -0.00004   0.00001   0.00001   0.00013  -0.00013
  16  C 1   dyy      0.00004  -0.00007   0.00000  -0.00018  -0.00020  -0.00020
  17  C 1   dxz     -0.00004   0.00001  -0.00002   0.00001   0.00006  -0.00008
  18  C 1   dyz      0.00001   0.00002  -0.00001  -0.00003  -0.00003  -0.00007
  19  C 1   dzz      0.00002  -0.00001  -0.00001  -0.00016  -0.00015  -0.00016
  20  O 1   s       -0.00002  -0.00014  -0.00023   0.99254  -0.00008  -0.00004
  21  O 1   s        0.00005   0.00000  -0.00007   0.02501  -0.00041  -0.00022
  22  O 1   px       0.00000  -0.00001  -0.00001  -0.00004   0.00002   0.00000
  23  O 1   py       0.00001   0.00000  -0.00002   0.00085  -0.00003  -0.00004
  24  O 1   pz      -0.00001   0.00000  -0.00001   0.00071  -0.00004  -0.00004
  25  O 1   s       -0.00040  -0.00012   0.00029   0.01644   0.00243   0.00100
  26  O 1   px      -0.00010   0.00007   0.00003  -0.00006   0.00011  -0.00034
  27  O 1   py      -0.00005  -0.00003   0.00017  -0.00039   0.00044   0.00039
  28  O 1   pz      -0.00002   0.00003   0.00006  -0.00028   0.00055   0.00037
  29  O 1   s        0.00048  -0.00033  -0.00028  -0.01064  -0.00346   0.00102
  30  O 1   px      -0.00004  -0.00016   0.00002   0.00039   0.00060   0.00033
  31  O 1   py       0.00035   0.00005  -0.00020  -0.00028  -0.00121   0.00024
  32  O 1   pz       0.00002  -0.00023   0.00001  -0.00062  -0.00098   0.00000
  33  O 1   dxx      0.00008   0.00001  -0.00002  -0.00871  -0.00019  -0.00008
  34  O 1   dxy     -0.00003   0.00002   0.00000   0.00001   0.00000   0.00001
  35  O 1   dyy      0.00004   0.00001  -0.00002  -0.00875  -0.00021  -0.00007
  36  O 1   dxz     -0.00001  -0.00001   0.00003   0.00001   0.00004  -0.00005
  37  O 1   dyz     -0.00001   0.00001   0.00002  -0.00003   0.00011   0.00012
  38  O 1   dzz      0.00002   0.00000  -0.00004  -0.00875  -0.00018  -0.00013
  39  C 2   s       -0.00002   0.00000   0.00000   0.00001   0.99326   0.00054
  40  C 2   s        0.00038  -0.00002   0.00001   0.00008   0.04988  -0.00009
  41  C 2   px      -0.00031   0.00001   0.00002   0.00000  -0.00084  -0.00004
  42  C 2   py      -0.00007   0.00001   0.00001   0.00000  -0.00021   0.00007
  43  C 2   pz      -0.00015  -0.00001   0.00000  -0.00001   0.00014  -0.00002
  44  C 2   s       -0.00012  -0.00011   0.00000  -0.00035  -0.02006  -0.00034
  45  C 2   px       0.00091  -0.00041  -0.00026  -0.00025  -0.00357   0.00070
  46  C 2   py       0.00023   0.00014  -0.00007   0.00001  -0.00046  -0.00125
  47  C 2   pz       0.00048   0.00006  -0.00015   0.00001  -0.00276  -0.00013
  48  C 2   s        0.02080   0.00963  -0.00226  -0.01542  -0.02556   0.00510
  49  C 2   px       0.00035   0.00234  -0.00007  -0.00433  -0.00490   0.00062
  50  C 2   py      -0.00236  -0.00123   0.00120   0.00436  -0.00421   0.00109
  51  C 2   pz       0.00037  -0.00016   0.00064   0.00230  -0.00314   0.00174
  52  C 2   dxx     -0.00025   0.00005   0.00000   0.00003  -0.00795  -0.00011
  53  C 2   dxy     -0.00003   0.00003  -0.00001   0.00001   0.00014  -0.00004
  54  C 2   dyy     -0.00014   0.00001   0.00001  -0.00002  -0.00867  -0.00002
  55  C 2   dxz     -0.00005   0.00001  -0.00001   0.00002   0.00039  -0.00006
  56  C 2   dyz      0.00000   0.00000   0.00002  -0.00004   0.00015   0.00002
  57  C 2   dzz     -0.00016   0.00001   0.00001  -0.00001  -0.00856  -0.00010
  58  O 2   s        0.99254   0.00000   0.00000   0.00005  -0.00006  -0.00003
  59  O 2   s        0.02503   0.00000   0.00000   0.00005   0.00045  -0.00014
  60  O 2   px       0.00096   0.00000  -0.00001   0.00000  -0.00008  -0.00001
  61  O 2   py       0.00028   0.00000  -0.00001  -0.00001   0.00002  -0.00002
  62  O 2   pz       0.00049   0.00000   0.00000   0.00000  -0.00007   0.00000
  63  O 2   s        0.01641   0.00000  -0.00008  -0.00038  -0.00249   0.00075
  64  O 2   px      -0.00027  -0.00008  -0.00002   0.00000  -0.00136   0.00029
  65  O 2   py      -0.00019  -0.00006   0.00002  -0.00001  -0.00057   0.00028
  66  O 2   pz      -0.00014  -0.00009  -0.00002  -0.00005  -0.00047   0.00016
  67  O 2   s       -0.00941  -0.00119  -0.00027   0.00066   0.00373  -0.00023
  68  O 2   px      -0.00046  -0.00045  -0.00030   0.00034   0.00264  -0.00008
  69  O 2   py       0.00034   0.00009  -0.00006  -0.00018   0.00096  -0.00007
  70  O 2   pz      -0.00031  -0.00005  -0.00005  -0.00006   0.00138  -0.00025
  71  O 2   dxx     -0.00872  -0.00002   0.00000   0.00006  -0.00021  -0.00002
  72  O 2   dxy      0.00000  -0.00001   0.00000  -0.00004  -0.00020   0.00005
  73  O 2   dyy     -0.00871   0.00000   0.00000   0.00005   0.00032  -0.00008
  74  O 2   dxz      0.00000  -0.00002   0.00000  -0.00003  -0.00034   0.00003
  75  O 2   dyz      0.00001   0.00000   0.00001   0.00001  -0.00015   0.00003
  76  O 2   dzz     -0.00872  -0.00001   0.00000   0.00002   0.00028  -0.00010
  77  C 3   s        0.00001   0.00000   0.00001   0.00002   0.00176  -0.00007
  78  C 3   s        0.00012  -0.00001   0.00003   0.00007  -0.00016  -0.00012
  79  C 3   px       0.00003  -0.00001  -0.00001   0.00001   0.00000  -0.00008
  80  C 3   py       0.00000  -0.00002  -0.00001  -0.00002   0.00001   0.00002
  81  C 3   pz       0.00003   0.00000  -0.00001  -0.00003  -0.00001   0.00004
  82  C 3   s       -0.00045  -0.00023  -0.00011  -0.00037   0.00572   0.00098
  83  C 3   px      -0.00035   0.00025   0.00003  -0.00006   0.00090  -0.00014
  84  C 3   py       0.00023   0.00019   0.00003   0.00013  -0.00207  -0.00027
  85  C 3   pz      -0.00011  -0.00003   0.00005   0.00014  -0.00051  -0.00060
  86  C 3   s       -0.00423  -0.00280  -0.00277  -0.00317   0.01226  -0.00346
  87  C 3   px       0.00032  -0.00101  -0.00050   0.00066   0.00054   0.00013
  88  C 3   py       0.00098   0.00045   0.00064   0.00063  -0.00211   0.00099
  89  C 3   pz       0.00055   0.00026   0.00015   0.00032  -0.00117   0.00016
  90  C 3   dxx     -0.00003   0.00004   0.00001   0.00002  -0.00013  -0.00008
  91  C 3   dxy     -0.00002  -0.00001   0.00000   0.00002  -0.00010   0.00002
  92  C 3   dyy     -0.00002   0.00000   0.00000   0.00002  -0.00030  -0.00005
  93  C 3   dxz     -0.00004  -0.00002   0.00000   0.00000  -0.00006   0.00004
  94  C 3   dyz     -0.00004  -0.00001   0.00000   0.00000  -0.00022   0.00004
  95  C 3   dzz     -0.00002   0.00001   0.00001   0.00004  -0.00027  -0.00004
  96  H 1   s        0.00004   0.00003   0.00000   0.00002  -0.00013  -0.00012
  97  H 1   s        0.00013  -0.00029  -0.00017  -0.00007  -0.00177   0.00037
  98  H 2   s       -0.00001  -0.00003   0.00000   0.00001  -0.00014   0.00001
  99  H 2   s       -0.00012  -0.00002   0.00007   0.00012  -0.00017  -0.00046
 100  H 3   s        0.00003   0.00001  -0.00002  -0.00002  -0.00016  -0.00001
 101  H 3   s       -0.00010   0.00016   0.00015   0.00010  -0.00033   0.00005
 102  C 4   s        0.00001  -0.00003  -0.00003   0.00001  -0.00063   0.99320
 103  C 4   s        0.00004   0.00033   0.00035   0.00009  -0.00017   0.04925
 104  C 4   px      -0.00002   0.00003   0.00023  -0.00002   0.00011   0.00053
 105  C 4   py       0.00000   0.00033  -0.00016   0.00001   0.00005   0.00031
 106  C 4   pz       0.00000  -0.00020   0.00023   0.00002   0.00000   0.00006
 107  C 4   s       -0.00011   0.00052   0.00036  -0.00046   0.00017  -0.01643
 108  C 4   px       0.00025   0.00049  -0.00008   0.00028   0.00003   0.00175
 109  C 4   py      -0.00001  -0.00053   0.00060   0.00005   0.00031   0.00073
 110  C 4   pz       0.00007   0.00047  -0.00056  -0.00034  -0.00077   0.00040
 111  C 4   s        0.00131   0.01077   0.01060  -0.00173  -0.01059  -0.00232
 112  C 4   px      -0.00059  -0.00328  -0.00128   0.00039   0.00187   0.00098
 113  C 4   py       0.00030   0.00194  -0.00280   0.00003   0.00083   0.00019
 114  C 4   pz      -0.00052  -0.00195   0.00161  -0.00001  -0.00080  -0.00025
 115  C 4   dxx      0.00002  -0.00013  -0.00018  -0.00001  -0.00011  -0.00862
 116  C 4   dxy      0.00001   0.00001   0.00004  -0.00002   0.00000  -0.00016
 117  C 4   dyy      0.00002  -0.00017  -0.00017  -0.00003   0.00002  -0.00827
 118  C 4   dxz      0.00001   0.00002  -0.00002  -0.00002   0.00000   0.00032
 119  C 4   dyz      0.00000   0.00002   0.00003  -0.00001   0.00003  -0.00060
 120  C 4   dzz      0.00003  -0.00017  -0.00020  -0.00001  -0.00010  -0.00844
 121  O 3   s        0.00000  -0.00404   0.99255   0.00021  -0.00002  -0.00005
 122  O 3   s        0.00000   0.00000   0.02513  -0.00005  -0.00008   0.00041
 123  O 3   px       0.00001   0.00000  -0.00065   0.00001  -0.00001   0.00006
 124  O 3   py       0.00001  -0.00001   0.00047   0.00001   0.00002  -0.00004
 125  O 3   pz       0.00000  -0.00002  -0.00066   0.00001   0.00002   0.00006
 126  O 3   s       -0.00001  -0.00050   0.01581   0.00028   0.00059  -0.00176
 127  O 3   px      -0.00003  -0.00002   0.00014  -0.00012  -0.00015   0.00052
 128  O 3   py      -0.00007  -0.00005  -0.00030  -0.00001  -0.00001  -0.00048
 129  O 3   pz       0.00002   0.00014   0.00035  -0.00005  -0.00012   0.00058
 130  O 3   s       -0.00011  -0.00079  -0.00879  -0.00055  -0.00106   0.00512
 131  O 3   px       0.00017   0.00087   0.00081   0.00023   0.00077  -0.00231
 132  O 3   py       0.00013  -0.00016  -0.00002   0.00014   0.00024   0.00045
 133  O 3   pz       0.00014   0.00013   0.00008   0.00010   0.00022  -0.00128
 134  O 3   dxx      0.00000   0.00013  -0.00866  -0.00002  -0.00005   0.00012
 135  O 3   dxy      0.00000   0.00002   0.00002   0.00000  -0.00001   0.00017
 136  O 3   dyy     -0.00001   0.00001  -0.00867  -0.00002   0.00000   0.00024
 137  O 3   dxz     -0.00001   0.00001  -0.00001   0.00003   0.00004  -0.00032
 138  O 3   dyz      0.00001   0.00008   0.00003   0.00002   0.00000   0.00024
 139  O 3   dzz     -0.00001   0.00005  -0.00868  -0.00004  -0.00003   0.00016
 140  O 4   s        0.00000   0.99256   0.00407   0.00014   0.00002  -0.00005
 141  O 4   s       -0.00002   0.02512   0.00021   0.00001   0.00011   0.00035
 142  O 4   px       0.00000  -0.00012   0.00000   0.00000  -0.00001   0.00001
 143  O 4   py      -0.00001  -0.00086  -0.00002   0.00000  -0.00003   0.00008
 144  O 4   pz       0.00000   0.00053   0.00001   0.00000  -0.00001  -0.00004
 145  O 4   s        0.00017   0.01579  -0.00040  -0.00010  -0.00065  -0.00124
 146  O 4   px      -0.00002  -0.00012  -0.00004  -0.00001   0.00024   0.00001
 147  O 4   py       0.00002   0.00043   0.00008   0.00001   0.00035   0.00071
 148  O 4   pz      -0.00001  -0.00031  -0.00007   0.00003  -0.00005  -0.00049
 149  O 4   s       -0.00042  -0.00909  -0.00068  -0.00037  -0.00153   0.00448
 150  O 4   px       0.00009   0.00066   0.00055   0.00012   0.00025  -0.00100
 151  O 4   py       0.00001   0.00033   0.00039   0.00020   0.00024  -0.00203
 152  O 4   pz      -0.00006  -0.00013  -0.00007   0.00000   0.00003   0.00083
 153  O 4   dxx     -0.00002  -0.00865   0.00002  -0.00001   0.00003   0.00031
 154  O 4   dxy      0.00001   0.00001   0.00008   0.00002  -0.00003  -0.00011
 155  O 4   dyy     -0.00001  -0.00870   0.00001   0.00001   0.00003  -0.00011
 156  O 4   dxz     -0.00001   0.00000  -0.00005   0.00000   0.00001   0.00001
 157  O 4   dyz      0.00001   0.00005   0.00005   0.00000  -0.00001   0.00036
 158  O 4   dzz     -0.00001  -0.00867  -0.00003   0.00002   0.00007   0.00022
 159  C 5   s        0.00001   0.00002   0.00001   0.00002  -0.00005  -0.00002
 160  C 5   s        0.00001   0.00007   0.00003   0.00007  -0.00051   0.00002
 161  C 5   px       0.00000   0.00002   0.00003   0.00001   0.00009  -0.00007
 162  C 5   py       0.00001   0.00002   0.00000   0.00002   0.00008  -0.00003
 163  C 5   pz      -0.00003   0.00000  -0.00001  -0.00003  -0.00002   0.00003
 164  C 5   s       -0.00033  -0.00051  -0.00046  -0.00060   0.00188   0.00018
 165  C 5   px      -0.00010  -0.00018  -0.00018  -0.00001  -0.00130   0.00029
 166  C 5   py      -0.00001  -0.00016   0.00001  -0.00025   0.00050  -0.00027
 167  C 5   pz       0.00011   0.00004   0.00005   0.00000  -0.00066   0.00009
 168  C 5   s       -0.00463  -0.00303  -0.00094  -0.00552  -0.00696   0.00022
 169  C 5   px       0.00059  -0.00004  -0.00050  -0.00072  -0.00053   0.00047
 170  C 5   py      -0.00065  -0.00045  -0.00018  -0.00014  -0.00119   0.00008
 171  C 5   pz       0.00129   0.00087   0.00002   0.00170   0.00193   0.00012
 172  C 5   dxx      0.00003   0.00002   0.00004   0.00004  -0.00021  -0.00002
 173  C 5   dxy     -0.00001   0.00000   0.00002  -0.00001  -0.00010  -0.00002
 174  C 5   dyy      0.00000   0.00003   0.00002   0.00003   0.00010  -0.00008
 175  C 5   dxz      0.00002   0.00000  -0.00002   0.00001   0.00010   0.00003
 176  C 5   dyz      0.00000   0.00001   0.00000   0.00001  -0.00015   0.00003
 177  C 5   dzz      0.00004   0.00003   0.00002   0.00006   0.00002  -0.00004
 178  H 4   s       -0.00003   0.00000   0.00003   0.00000  -0.00016   0.00000
 179  H 4   s        0.00024  -0.00007  -0.00013   0.00010  -0.00101   0.00002
 180  H 5   s        0.00001   0.00002   0.00004   0.00001   0.00006  -0.00001
 181  H 5   s        0.00016   0.00016   0.00034  -0.00005   0.00011  -0.00073
 182  H 6   s       -0.00002   0.00001  -0.00001   0.00002  -0.00016   0.00006
 183  H 6   s       -0.00004   0.00002  -0.00004   0.00021  -0.00046  -0.00008
                         7         8         9        10        11        12
 eigenvalues:         -9.943    -9.911    -9.881    -0.716    -0.707    -0.663
   1  C 1   s        0.99333   0.00007  -0.00021  -0.05795   0.00347  -0.10055
   2  C 1   s        0.05012  -0.00006  -0.00057   0.11167  -0.00684   0.19651
   3  C 1   px      -0.00025   0.00011   0.00002  -0.00074  -0.03734   0.00283
   4  C 1   py      -0.00065   0.00002   0.00002  -0.02075  -0.00368  -0.12929
   5  C 1   pz      -0.00004  -0.00006  -0.00006  -0.02753  -0.00366  -0.10642
   6  C 1   s       -0.02357  -0.00109   0.00278   0.03381   0.00789   0.08319
   7  C 1   px       0.00128  -0.00196  -0.00037  -0.00992  -0.00075   0.01230
   8  C 1   py      -0.00197  -0.00109  -0.00122  -0.00186  -0.01530   0.05050
   9  C 1   pz      -0.00269   0.00000   0.00097  -0.00234  -0.01745   0.04196
  10  C 1   s       -0.01391   0.01362   0.04434  -0.21246  -0.00051   0.33568
  11  C 1   px       0.00019   0.00122  -0.00546  -0.01267   0.03103  -0.03736
  12  C 1   py      -0.00448   0.00147   0.00503  -0.04271  -0.01303   0.02025
  13  C 1   pz      -0.00309   0.00273   0.00895  -0.01773  -0.01334   0.01282
  14  C 1   dxx     -0.00857   0.00004  -0.00017   0.00248   0.00001  -0.01828
  15  C 1   dxy     -0.00008  -0.00005   0.00005  -0.00005  -0.00516  -0.00113
  16  C 1   dyy     -0.00814  -0.00011  -0.00008   0.00178  -0.00042   0.00469
  17  C 1   dxz     -0.00003   0.00008  -0.00007   0.00056  -0.00163  -0.00197
  18  C 1   dyz      0.00046  -0.00003  -0.00010   0.00803  -0.00049   0.02075
  19  C 1   dzz     -0.00829  -0.00008   0.00002  -0.00227  -0.00022  -0.00118
  20  O 1   s       -0.00012  -0.00003  -0.00001  -0.06214   0.00160  -0.18498
  21  O 1   s        0.00010  -0.00014  -0.00001   0.13473  -0.00060   0.39499
  22  O 1   px       0.00004   0.00000   0.00002  -0.00308  -0.00529  -0.00574
  23  O 1   py      -0.00007  -0.00003   0.00003   0.04137  -0.00071   0.10620
  24  O 1   pz      -0.00011   0.00001  -0.00002   0.03387  -0.00086   0.09045
  25  O 1   s       -0.00005   0.00051  -0.00025   0.12386  -0.02042   0.43241
  26  O 1   px      -0.00024   0.00019   0.00002  -0.00033  -0.00296  -0.00406
  27  O 1   py      -0.00059   0.00032  -0.00022   0.01348  -0.00586   0.04667
  28  O 1   pz      -0.00013   0.00001  -0.00034   0.01079  -0.00472   0.04046
  29  O 1   s        0.00471  -0.00143  -0.00619  -0.00904   0.00143  -0.03876
  30  O 1   px      -0.00004   0.00008   0.00021  -0.00094   0.00313   0.00322
  31  O 1   py       0.00268  -0.00029  -0.00120  -0.00015   0.00475  -0.00250
  32  O 1   pz       0.00184  -0.00039  -0.00167  -0.00073   0.00323  -0.00331
  33  O 1   dxx      0.00013  -0.00010  -0.00007  -0.00306   0.00169  -0.01236
  34  O 1   dxy     -0.00002   0.00000   0.00003  -0.00035  -0.00084  -0.00043
  35  O 1   dyy     -0.00020  -0.00003   0.00001   0.00140   0.00059   0.00029
  36  O 1   dxz     -0.00003   0.00004  -0.00002  -0.00025  -0.00062  -0.00128
  37  O 1   dyz     -0.00042   0.00006  -0.00002   0.00384  -0.00030   0.01036
  38  O 1   dzz     -0.00003  -0.00012  -0.00005  -0.00009   0.00061  -0.00243
  39  C 2   s       -0.00567  -0.00199  -0.00011  -0.08553  -0.07722   0.01792
  40  C 2   s       -0.00041  -0.00032  -0.00044   0.16594   0.14952  -0.03481
  41  C 2   px      -0.00001   0.00007  -0.00003  -0.08725  -0.10972   0.06894
  42  C 2   py       0.00002  -0.00010   0.00005  -0.02739  -0.02197  -0.01058
  43  C 2   pz       0.00014  -0.00009  -0.00015  -0.04782  -0.04802   0.01253
  44  C 2   s        0.00468   0.00327   0.00122   0.06319   0.05324  -0.01072
  45  C 2   px       0.00471   0.00133  -0.00105   0.02497   0.04012  -0.03608
  46  C 2   py      -0.00153   0.00391  -0.00027   0.01246   0.01386  -0.02313
  47  C 2   pz      -0.00044   0.00291   0.00153   0.01666   0.02450  -0.02836
  48  C 2   s        0.01966  -0.00040  -0.00931   0.18852   0.11772  -0.26054
  49  C 2   px       0.00334  -0.00038  -0.00355   0.01470  -0.00285  -0.05666
  50  C 2   py       0.00221  -0.00149   0.00261   0.00691  -0.00768   0.03175
  51  C 2   pz       0.00289  -0.00006   0.00348   0.01031   0.00900  -0.00028
  52  C 2   dxx     -0.00029  -0.00018  -0.00009   0.01005   0.00782  -0.00092
  53  C 2   dxy      0.00015  -0.00003   0.00000   0.00354   0.00535  -0.00665
  54  C 2   dyy     -0.00009  -0.00025   0.00000  -0.00990  -0.01062   0.00643
  55  C 2   dxz      0.00005  -0.00008   0.00002   0.01047   0.01162  -0.00670
  56  C 2   dyz      0.00001  -0.00011  -0.00012   0.00384   0.00311   0.00069
  57  C 2   dzz     -0.00002  -0.00019   0.00001  -0.00834  -0.00801   0.00251
  58  O 2   s       -0.00008  -0.00006   0.00003  -0.12885  -0.13449   0.05776
  59  O 2   s       -0.00041  -0.00033   0.00016   0.27680   0.28723  -0.12087
  60  O 2   px      -0.00006  -0.00006   0.00003   0.08980   0.09035  -0.03164
  61  O 2   py       0.00000   0.00000   0.00001   0.02215   0.02389  -0.01341
  62  O 2   pz      -0.00005  -0.00003   0.00003   0.04449   0.04614  -0.01980
  63  O 2   s        0.00231   0.00170  -0.00093   0.28544   0.31083  -0.15705
  64  O 2   px       0.00046   0.00094  -0.00026   0.03468   0.03903  -0.02058
  65  O 2   py       0.00042  -0.00023   0.00000   0.00861   0.01085  -0.00681
  66  O 2   pz       0.00067   0.00021  -0.00048   0.01737   0.02056  -0.01228
  67  O 2   s       -0.00077   0.00132  -0.00203  -0.02803  -0.02070   0.00986
  68  O 2   px      -0.00063   0.00034  -0.00058  -0.00270   0.00149   0.00328
  69  O 2   py       0.00015   0.00075   0.00019  -0.00002   0.00141  -0.00186
  70  O 2   pz      -0.00011   0.00033  -0.00049  -0.00157  -0.00206   0.00201
  71  O 2   dxx     -0.00019  -0.00001   0.00011   0.00316   0.00246   0.00084
  72  O 2   dxy      0.00003  -0.00001   0.00004   0.00320   0.00372  -0.00233
  73  O 2   dyy     -0.00022  -0.00016   0.00009  -0.00665  -0.00751   0.00412
  74  O 2   dxz      0.00012   0.00009  -0.00005   0.00590   0.00640  -0.00292
  75  O 2   dyz      0.00011   0.00009  -0.00001   0.00039   0.00050  -0.00017
  76  O 2   dzz     -0.00019  -0.00023   0.00002  -0.00442  -0.00507   0.00276
  77  C 3   s       -0.00014   0.99300   0.00004  -0.01700  -0.01349   0.00564
  78  C 3   s       -0.00020   0.05056   0.00012   0.03356   0.02571  -0.00957
  79  C 3   px      -0.00001  -0.00003   0.00002  -0.00420  -0.00859   0.00467
  80  C 3   py       0.00005   0.00014   0.00007  -0.01653  -0.01382   0.00318
  81  C 3   pz       0.00005   0.00000  -0.00002  -0.01272  -0.01085   0.00332
  82  C 3   s        0.00064  -0.02098  -0.00132   0.00017  -0.00077   0.00992
  83  C 3   px      -0.00080  -0.00030   0.00004  -0.01080  -0.01306   0.00334
  84  C 3   py      -0.00015   0.00151   0.00090   0.00616   0.00677  -0.00823
  85  C 3   pz      -0.00031   0.00137   0.00041  -0.00081  -0.00280   0.00052
  86  C 3   s       -0.00885  -0.00141  -0.00813  -0.08573  -0.00816   0.02833
  87  C 3   px       0.00031   0.00020  -0.00023  -0.00391   0.01327   0.00751
  88  C 3   py       0.00214   0.00041   0.00209   0.01638   0.00260  -0.00525
  89  C 3   pz       0.00084   0.00031   0.00077   0.01156   0.00061  -0.00134
  90  C 3   dxx      0.00001  -0.00897  -0.00002   0.00000  -0.00068   0.00003
  91  C 3   dxy      0.00006   0.00003  -0.00002   0.00156   0.00198  -0.00100
  92  C 3   dyy     -0.00004  -0.00916  -0.00008   0.00274   0.00231  -0.00014
  93  C 3   dxz      0.00005   0.00000   0.00002   0.00058   0.00113  -0.00069
  94  C 3   dyz      0.00004  -0.00013   0.00000   0.00273   0.00265  -0.00089
  95  C 3   dzz     -0.00010  -0.00903   0.00005   0.00165   0.00139  -0.00016
  96  H 1   s       -0.00003  -0.00007   0.00002   0.00746   0.00298  -0.00183
  97  H 1   s        0.00064   0.00387  -0.00094   0.00744   0.00705   0.00034
  98  H 2   s        0.00004  -0.00006   0.00001   0.00710   0.00563  -0.00285
  99  H 2   s       -0.00037   0.00395  -0.00020   0.00118  -0.00397   0.00533
 100  H 3   s       -0.00006  -0.00011   0.00005   0.00757   0.00718  -0.00377
 101  H 3   s       -0.00015   0.00341  -0.00020   0.00000  -0.00338   0.00112
 102  C 4   s       -0.00409   0.00000   0.00001  -0.09032   0.10029   0.02653
 103  C 4   s       -0.00036  -0.00015   0.00003   0.17645  -0.19447  -0.05197
 104  C 4   px      -0.00004   0.00000   0.00005   0.04001  -0.06324  -0.04509
 105  C 4   py      -0.00005  -0.00003   0.00002   0.02138  -0.03003  -0.03017
 106  C 4   pz      -0.00001  -0.00001   0.00002   0.00432  -0.01106  -0.01389
 107  C 4   s        0.00203   0.00063   0.00007   0.05895  -0.05540  -0.03553
 108  C 4   px      -0.00378  -0.00166   0.00093  -0.01885   0.02962   0.02157
 109  C 4   py      -0.00216  -0.00016  -0.00017  -0.01693   0.00136   0.01096
 110  C 4   pz       0.00064  -0.00115  -0.00001  -0.00260   0.01493  -0.01289
 111  C 4   s       -0.00154  -0.00964  -0.00127   0.16824  -0.13797  -0.08694
 112  C 4   px       0.00094   0.00243  -0.00061  -0.04436   0.03707   0.02437
 113  C 4   py       0.00050   0.00073  -0.00095  -0.00925   0.01389   0.00668
 114  C 4   pz       0.00036  -0.00042  -0.00066  -0.00641   0.00114   0.00344
 115  C 4   dxx     -0.00018  -0.00007  -0.00004  -0.00580   0.00967   0.00537
 116  C 4   dxy     -0.00011   0.00007  -0.00002  -0.00159   0.00364   0.00545
 117  C 4   dyy     -0.00023  -0.00005  -0.00006   0.00017   0.00033   0.00178
 118  C 4   dxz     -0.00013  -0.00001   0.00007   0.00735  -0.00740  -0.00052
 119  C 4   dyz     -0.00004   0.00002   0.00000  -0.01199   0.01461   0.00786
 120  C 4   dzz     -0.00012  -0.00009   0.00001  -0.00430   0.00538   0.00154
 121  O 3   s       -0.00003  -0.00004  -0.00001  -0.08158   0.09868   0.03770
 122  O 3   s       -0.00015  -0.00020  -0.00004   0.17602  -0.21113  -0.08273
 123  O 3   px       0.00003   0.00001  -0.00001  -0.04367   0.05091   0.01568
 124  O 3   py      -0.00003  -0.00001   0.00001   0.03261  -0.03979  -0.01746
 125  O 3   pz       0.00006   0.00002  -0.00003  -0.04461   0.05270   0.01799
 126  O 3   s        0.00030   0.00126   0.00034   0.17158  -0.22255  -0.07786
 127  O 3   px       0.00015  -0.00027   0.00020  -0.01655   0.02170   0.00237
 128  O 3   py       0.00058   0.00035  -0.00016   0.01530  -0.02040  -0.00801
 129  O 3   pz      -0.00054  -0.00035   0.00023  -0.01700   0.02415   0.00695
 130  O 3   s        0.00230   0.00089  -0.00439  -0.02173   0.02907   0.00855
 131  O 3   px      -0.00064   0.00000   0.00167   0.00952  -0.01123  -0.00462
 132  O 3   py      -0.00003   0.00014   0.00060   0.00038  -0.00062   0.00031
 133  O 3   pz      -0.00006   0.00014   0.00033   0.00232   0.00001   0.00089
 134  O 3   dxx     -0.00010  -0.00010  -0.00008  -0.00084   0.00169   0.00090
 135  O 3   dxy      0.00000  -0.00003  -0.00003  -0.00430   0.00535   0.00189
 136  O 3   dyy     -0.00004  -0.00008  -0.00003  -0.00189   0.00269   0.00015
 137  O 3   dxz      0.00007   0.00004  -0.00002   0.00453  -0.00561  -0.00116
 138  O 3   dyz     -0.00017  -0.00004   0.00003  -0.00348   0.00445   0.00220
 139  O 3   dzz     -0.00005  -0.00009  -0.00004   0.00037  -0.00022  -0.00048
 140  O 4   s       -0.00006   0.00001  -0.00004  -0.08251   0.09527   0.03852
 141  O 4   s       -0.00033   0.00006  -0.00019   0.17750  -0.20691  -0.08107
 142  O 4   px       0.00001   0.00001   0.00001  -0.00821   0.00679  -0.00030
 143  O 4   py       0.00010   0.00000   0.00000  -0.05978   0.06810   0.02314
 144  O 4   pz      -0.00003  -0.00005   0.00002   0.03666  -0.04287  -0.01792
 145  O 4   s        0.00151  -0.00060   0.00116   0.17900  -0.19706  -0.09562
 146  O 4   px       0.00022   0.00024  -0.00017  -0.00165  -0.00151   0.00005
 147  O 4   py      -0.00094   0.00004  -0.00006  -0.02529   0.02537   0.01366
 148  O 4   pz       0.00054   0.00026  -0.00004   0.01708  -0.01868  -0.00819
 149  O 4   s        0.00338   0.00150  -0.00427  -0.02113   0.03602   0.00774
 150  O 4   px      -0.00039  -0.00036   0.00142   0.00541  -0.00841  -0.00649
 151  O 4   py      -0.00070  -0.00003   0.00102   0.00416  -0.00740   0.00085
 152  O 4   pz       0.00018   0.00025  -0.00019   0.00048   0.00124   0.00071
 153  O 4   dxx     -0.00014   0.00000  -0.00014  -0.00501   0.00544   0.00267
 154  O 4   dxy      0.00004  -0.00004   0.00002   0.00061  -0.00001   0.00024
 155  O 4   dyy     -0.00005   0.00000  -0.00011   0.00361  -0.00443  -0.00061
 156  O 4   dxz      0.00008   0.00000   0.00000  -0.00111   0.00093   0.00018
 157  O 4   dyz     -0.00015  -0.00006   0.00000  -0.00550   0.00658   0.00270
 158  O 4   dzz     -0.00021   0.00003  -0.00010  -0.00085   0.00052   0.00120
 159  C 5   s       -0.00004  -0.00001   0.99305  -0.00716  -0.00213  -0.00631
 160  C 5   s       -0.00070   0.00011   0.05010   0.01169   0.00259   0.00952
 161  C 5   px       0.00002   0.00000  -0.00011   0.00089  -0.00308   0.00234
 162  C 5   py       0.00009  -0.00013  -0.00004   0.00310   0.00094  -0.00010
 163  C 5   pz      -0.00011   0.00003   0.00017  -0.00579  -0.00181  -0.00684
 164  C 5   s        0.00374  -0.00091  -0.01820   0.00738   0.00591   0.01037
 165  C 5   px       0.00115   0.00006  -0.00018  -0.00358  -0.00090   0.00311
 166  C 5   py       0.00022   0.00021  -0.00074  -0.00153   0.00177  -0.00614
 167  C 5   pz      -0.00160   0.00023   0.00134  -0.00560  -0.00024  -0.00790
 168  C 5   s        0.00111  -0.00374  -0.01461  -0.01034   0.00304  -0.01226
 169  C 5   px       0.00027   0.00006  -0.00122   0.00332   0.00859  -0.00600
 170  C 5   py       0.00039  -0.00049  -0.00181  -0.00094   0.00321   0.00302
 171  C 5   pz       0.00032   0.00107   0.00356   0.00314   0.00191   0.00568
 172  C 5   dxx     -0.00006  -0.00002  -0.00886   0.00010  -0.00032  -0.00062
 173  C 5   dxy      0.00013  -0.00002  -0.00003   0.00004  -0.00034  -0.00020
 174  C 5   dyy     -0.00021   0.00000  -0.00899  -0.00063  -0.00061  -0.00069
 175  C 5   dxz     -0.00018  -0.00001   0.00006   0.00010   0.00070  -0.00059
 176  C 5   dyz     -0.00016   0.00003   0.00024  -0.00036  -0.00015   0.00023
 177  C 5   dzz      0.00011  -0.00006  -0.00913   0.00106   0.00001   0.00193
 178  H 4   s       -0.00015   0.00006  -0.00013   0.00345   0.00148   0.00361
 179  H 4   s       -0.00066   0.00029   0.00335  -0.00118   0.00201  -0.00181
 180  H 5   s       -0.00026   0.00005  -0.00014   0.00397  -0.00147   0.00312
 181  H 5   s       -0.00062   0.00005   0.00288   0.00619   0.00019  -0.00570
 182  H 6   s        0.00001  -0.00015  -0.00019   0.00287   0.00136   0.00137
 183  H 6   s       -0.00013   0.00060   0.00289   0.00210  -0.00370   0.00885
                        13        14        15        16        17        18
 eigenvalues:         -0.622    -0.461    -0.388    -0.336    -0.242    -0.180
   1  C 1   s       -0.00256  -0.03989  -0.05995   0.10341  -0.03784   0.03886
   2  C 1   s        0.00468   0.07849   0.11641  -0.21563   0.07819  -0.08485
   3  C 1   px      -0.00095  -0.03377  -0.04122   0.03564   0.27755   0.15567
   4  C 1   py       0.01308   0.06635   0.05993  -0.15108   0.02702   0.00454
   5  C 1   pz      -0.00667   0.05113   0.08366  -0.05255   0.03033  -0.00182
   6  C 1   s        0.01249   0.06299   0.13648  -0.20064   0.10361  -0.09728
   7  C 1   px      -0.01397   0.00462  -0.00822   0.00309   0.04638   0.05619
   8  C 1   py       0.00952   0.01059   0.00896  -0.04297   0.01316   0.01227
   9  C 1   pz      -0.02079   0.01895   0.02548  -0.02289   0.01371   0.00225
  10  C 1   s       -0.16909  -0.10480  -0.20752  -0.01197   0.08433  -0.06700
  11  C 1   px       0.04629   0.02607   0.02070   0.00654   0.08689  -0.04287
  12  C 1   py      -0.04221   0.01489  -0.00933  -0.02411   0.03169  -0.03881
  13  C 1   pz       0.00710  -0.02287  -0.02012  -0.00418   0.02482  -0.04161
  14  C 1   dxx     -0.00123   0.00163   0.00360  -0.00729   0.00148   0.00221
  15  C 1   dxy      0.00212  -0.00331   0.00023   0.00321   0.01088   0.00024
  16  C 1   dyy      0.00233  -0.00279  -0.00726   0.00867  -0.00400   0.00410
  17  C 1   dxz     -0.00238  -0.00237  -0.00240  -0.00075   0.00403  -0.00174
  18  C 1   dyz     -0.00036  -0.00165  -0.00584   0.00143  -0.00040   0.00140
  19  C 1   dzz     -0.00103  -0.00390  -0.00414   0.01303  -0.00340   0.00267
  20  O 1   s        0.00107   0.02845   0.04656  -0.05583   0.02462  -0.02650
  21  O 1   s       -0.00078  -0.06268  -0.10199   0.12668  -0.05604   0.05850
  22  O 1   px      -0.00066  -0.00355  -0.01048   0.00609   0.09333   0.08402
  23  O 1   py       0.00147  -0.00292   0.00083  -0.03982   0.03077  -0.04654
  24  O 1   pz      -0.00217  -0.00102   0.01474  -0.01072   0.02737  -0.04450
  25  O 1   s       -0.00945  -0.06995  -0.13381   0.15269  -0.07898   0.10095
  26  O 1   px       0.00158  -0.00141  -0.00383   0.00293   0.04973   0.04530
  27  O 1   py      -0.00442   0.00278   0.00057  -0.02373   0.01479  -0.01990
  28  O 1   pz       0.00036   0.00051   0.00425  -0.00753   0.01156  -0.01765
  29  O 1   s        0.00529   0.01560   0.01571  -0.00261  -0.00376   0.01743
  30  O 1   px      -0.00191  -0.00227  -0.00025   0.00312  -0.00177   0.00477
  31  O 1   py       0.00256  -0.00160   0.00241   0.00664   0.00050   0.00195
  32  O 1   pz      -0.00088   0.00154  -0.00300  -0.00096   0.00036   0.00063
  33  O 1   dxx      0.00037   0.00090   0.00245  -0.00076  -0.00018  -0.00112
  34  O 1   dxy      0.00032  -0.00043  -0.00086   0.00099   0.00748   0.00578
  35  O 1   dyy      0.00037   0.00173   0.00263  -0.00535   0.00213  -0.00254
  36  O 1   dxz     -0.00020  -0.00041  -0.00068   0.00033   0.00622   0.00422
  37  O 1   dyz     -0.00031   0.00057   0.00161  -0.00385   0.00259  -0.00321
  38  O 1   dzz      0.00054   0.00116   0.00332  -0.00062   0.00128  -0.00186
  39  C 2   s       -0.00134  -0.07602  -0.02919   0.07425   0.09752  -0.05471
  40  C 2   s        0.00130   0.15107   0.05870  -0.15826  -0.21189   0.12489
  41  C 2   px       0.00688   0.10724   0.07825  -0.15021  -0.05635  -0.16316
  42  C 2   py       0.00148   0.08379  -0.09496   0.05338   0.02850   0.22050
  43  C 2   pz       0.00062   0.09579  -0.00333   0.03020  -0.01496   0.10944
  44  C 2   s       -0.01292   0.13144   0.05494  -0.13341  -0.24213   0.11507
  45  C 2   px       0.01121   0.01577   0.01559  -0.03288  -0.01424  -0.04740
  46  C 2   py       0.01159   0.00491  -0.01022   0.00130   0.02457   0.04292
  47  C 2   pz       0.01536   0.01271   0.00947   0.00031   0.00056   0.02380
  48  C 2   s        0.09398  -0.08348   0.08973   0.01364  -0.05561   0.14620
  49  C 2   px       0.03058   0.03427   0.02333   0.00226  -0.01969  -0.00192
  50  C 2   py      -0.03232  -0.03935   0.00449  -0.01206  -0.05940   0.09750
  51  C 2   pz      -0.02632  -0.01220  -0.01408   0.00162  -0.03954   0.07078
  52  C 2   dxx     -0.00060  -0.01054   0.00057  -0.00173   0.01076  -0.00258
  53  C 2   dxy     -0.00020  -0.00536  -0.00387   0.00596   0.00366  -0.00166
  54  C 2   dyy      0.00014   0.00680  -0.00448   0.00585   0.00141  -0.00555
  55  C 2   dxz     -0.00087  -0.00503  -0.00058   0.00284   0.00224  -0.00126
  56  C 2   dyz     -0.00026   0.00752  -0.00614  -0.00026  -0.00270   0.00090
  57  C 2   dzz     -0.00057  -0.00249  -0.00344   0.00807   0.00648  -0.00469
  58  O 2   s        0.00331   0.06282   0.01268  -0.02952  -0.06032   0.04677
  59  O 2   s       -0.00962  -0.13907  -0.02806   0.06681   0.13320  -0.10199
  60  O 2   px      -0.00182  -0.00562   0.01529  -0.04393  -0.12175   0.07630
  61  O 2   py      -0.00033   0.01211  -0.02834   0.01281  -0.00222   0.16328
  62  O 2   pz      -0.00116   0.00833  -0.00052   0.00962  -0.04916   0.14302
  63  O 2   s        0.00677  -0.16591  -0.03341   0.08326   0.21583  -0.18242
  64  O 2   px       0.00601  -0.00018   0.00943  -0.02483  -0.05059   0.02321
  65  O 2   py       0.00002   0.00563  -0.01267   0.00553   0.00108   0.08724
  66  O 2   pz       0.00091   0.00380   0.00049   0.00384  -0.01775   0.06901
  67  O 2   s        0.01040  -0.00227   0.00902  -0.00205   0.02912  -0.03006
  68  O 2   px       0.00197  -0.00873   0.00081   0.00171   0.00086   0.01018
  69  O 2   py       0.00182  -0.00481   0.00269   0.00411   0.00432   0.00327
  70  O 2   pz       0.00402  -0.00754  -0.00126  -0.00197   0.00148   0.00366
  71  O 2   dxx      0.00002   0.00257   0.00341  -0.00640  -0.00995  -0.00037
  72  O 2   dxy      0.00008   0.00138  -0.00206   0.00039  -0.00065   0.01031
  73  O 2   dyy     -0.00066   0.00284  -0.00084   0.00106  -0.00054   0.00471
  74  O 2   dxz      0.00013   0.00127   0.00088  -0.00083  -0.00475   0.00728
  75  O 2   dyz     -0.00011   0.00167  -0.00161   0.00077  -0.00132   0.00805
  76  O 2   dzz     -0.00070   0.00290   0.00037   0.00135  -0.00190   0.00620
  77  C 3   s       -0.00276  -0.16622   0.08398  -0.04962  -0.01888   0.01602
  78  C 3   s        0.00330   0.31788  -0.16340   0.09640   0.03612  -0.02999
  79  C 3   px       0.00116   0.00692   0.01909  -0.03523   0.00430  -0.16752
  80  C 3   py       0.00003  -0.02253  -0.04278   0.06029   0.10323  -0.20254
  81  C 3   pz      -0.00027  -0.01276  -0.00622   0.04539   0.06562  -0.15481
  82  C 3   s       -0.00091   0.30951  -0.17848   0.11619   0.04573  -0.03049
  83  C 3   px       0.00615   0.00133   0.00984  -0.01822  -0.00063  -0.07722
  84  C 3   py       0.00380   0.00402  -0.01882   0.01874   0.04001  -0.09947
  85  C 3   pz      -0.00388   0.00733  -0.00319   0.01833   0.02544  -0.07781
  86  C 3   s        0.02806   0.17770  -0.07717   0.03471   0.12755  -0.21450
  87  C 3   px      -0.00734  -0.00707  -0.00687  -0.00072   0.00589  -0.00828
  88  C 3   py      -0.00679  -0.04069   0.01538  -0.00228  -0.01632   0.02198
  89  C 3   pz      -0.00322  -0.02712   0.00965  -0.00497  -0.00992   0.01269
  90  C 3   dxx     -0.00004  -0.00016  -0.00167   0.00294   0.00525  -0.00815
  91  C 3   dxy     -0.00003  -0.00112  -0.00130   0.00222  -0.00023   0.00283
  92  C 3   dyy     -0.00063  -0.00040   0.00374  -0.00432  -0.00569   0.00625
  93  C 3   dxz     -0.00009  -0.00021  -0.00011   0.00003   0.00054  -0.00607
  94  C 3   dyz     -0.00005  -0.00014   0.00330  -0.00594  -0.00668   0.00960
  95  C 3   dzz     -0.00037  -0.00040  -0.00074  -0.00009  -0.00006  -0.00066
  96  H 1   s        0.00208   0.10912  -0.05416   0.03795   0.04599  -0.15430
  97  H 1   s        0.00199   0.00057  -0.00218   0.00875   0.02581  -0.08532
  98  H 2   s        0.00126   0.10543  -0.07365   0.04843   0.03918  -0.05705
  99  H 2   s       -0.00262   0.00730  -0.01102   0.01571   0.01849  -0.03206
 100  H 3   s        0.00110   0.10462  -0.06976   0.06665   0.03981   0.00531
 101  H 3   s        0.00484   0.00553  -0.01136   0.02033   0.01908   0.00953
 102  C 4   s       -0.00018  -0.00588  -0.01436   0.04000  -0.09725  -0.04410
 103  C 4   s       -0.00074   0.01029   0.03092  -0.08460   0.21119   0.10257
 104  C 4   px      -0.07953  -0.04079  -0.05786   0.11282  -0.16936  -0.00576
 105  C 4   py       0.19082  -0.01642  -0.01980   0.05111  -0.10540  -0.03335
 106  C 4   pz      -0.16942   0.00625  -0.00394   0.01288  -0.04608  -0.03582
 107  C 4   s        0.00939   0.02082   0.02042  -0.07891   0.22689   0.08362
 108  C 4   px       0.01101  -0.00362  -0.00196   0.01771  -0.04434   0.00249
 109  C 4   py      -0.03803   0.01652   0.00333  -0.00531  -0.03288  -0.01639
 110  C 4   pz       0.03162  -0.00424  -0.00101   0.00772  -0.00756  -0.01066
 111  C 4   s        0.01970  -0.01006   0.02820  -0.02689  -0.16119   0.07774
 112  C 4   px      -0.02330  -0.00021  -0.00653   0.00798   0.02356  -0.01306
 113  C 4   py       0.04023  -0.00388   0.00652   0.01381   0.00984  -0.00642
 114  C 4   pz      -0.02902   0.00853  -0.00720  -0.00416  -0.00115  -0.00296
 115  C 4   dxx     -0.01237   0.00351   0.00317  -0.00599  -0.00291  -0.00444
 116  C 4   dxy      0.01485   0.00054   0.00294  -0.00317   0.00598   0.00095
 117  C 4   dyy      0.01759  -0.00188  -0.00172   0.00576  -0.00653  -0.00275
 118  C 4   dxz     -0.01758  -0.00015  -0.00107  -0.00219   0.00158   0.00032
 119  C 4   dyz     -0.00603   0.00167   0.00088  -0.00298   0.00330  -0.00052
 120  C 4   dzz     -0.00435  -0.00142  -0.00192   0.00477  -0.00833  -0.00310
 121  O 3   s        0.15248   0.00699   0.01376  -0.01857   0.05385   0.02551
 122  O 3   s       -0.32744  -0.01598  -0.03233   0.04155  -0.12050  -0.05661
 123  O 3   px       0.07053  -0.00521  -0.01179   0.02553  -0.09849  -0.04721
 124  O 3   py      -0.03310  -0.00448  -0.00955   0.00901  -0.01638   0.01055
 125  O 3   pz       0.05790   0.00483   0.00572   0.00555  -0.04981  -0.06216
 126  O 3   s       -0.36008  -0.01415  -0.03277   0.05094  -0.17985  -0.09182
 127  O 3   px       0.03124  -0.00336  -0.00915   0.01134  -0.04414  -0.02150
 128  O 3   py      -0.00809  -0.00385  -0.00501   0.00486  -0.01216   0.00326
 129  O 3   pz       0.02070   0.00195   0.00339   0.00346  -0.02106  -0.02971
 130  O 3   s        0.00669  -0.00007   0.00065   0.00883  -0.01678  -0.00808
 131  O 3   px       0.00877  -0.00072   0.00178   0.00102  -0.00225  -0.00807
 132  O 3   py      -0.00740  -0.00200  -0.00308  -0.00026   0.00248  -0.00036
 133  O 3   pz       0.00820  -0.00228  -0.00112  -0.00036   0.00072  -0.00355
 134  O 3   dxx      0.00183   0.00122   0.00195  -0.00318   0.00800   0.00210
 135  O 3   dxy      0.00316   0.00029   0.00041   0.00029  -0.00044  -0.00060
 136  O 3   dyy      0.00858  -0.00051  -0.00098   0.00105  -0.00197  -0.00065
 137  O 3   dxz     -0.00520   0.00001   0.00025  -0.00191   0.00618   0.00388
 138  O 3   dyz      0.00060   0.00073   0.00064  -0.00103   0.00055  -0.00137
 139  O 3   dzz      0.00456  -0.00039  -0.00082  -0.00028   0.00258   0.00313
 140  O 4   s       -0.15293   0.01648   0.01022  -0.03172   0.05084   0.02202
 141  O 4   s        0.32758  -0.03477  -0.02213   0.07059  -0.11495  -0.04883
 142  O 4   px      -0.02523  -0.01148  -0.01154   0.03483  -0.06415  -0.00462
 143  O 4   py      -0.08200   0.00648  -0.00441   0.01870  -0.08505  -0.07858
 144  O 4   pz       0.04347  -0.00194  -0.00206   0.00206   0.01309   0.01138
 145  O 4   s        0.36444  -0.05249  -0.03230   0.09793  -0.16349  -0.07666
 146  O 4   px      -0.01691  -0.00452  -0.00549   0.01575  -0.03130  -0.00189
 147  O 4   py      -0.03242   0.00784  -0.00136   0.00501  -0.03889  -0.03959
 148  O 4   pz       0.01548  -0.00464  -0.00215   0.00404   0.00366   0.00347
 149  O 4   s       -0.00789  -0.01659   0.00653   0.02403  -0.01400  -0.00192
 150  O 4   px      -0.00005   0.00652  -0.00789  -0.00324  -0.00125  -0.00550
 151  O 4   py      -0.01200   0.00098  -0.00156  -0.00712  -0.00164  -0.00575
 152  O 4   pz       0.00629  -0.00322   0.00290   0.00384   0.00011   0.00394
 153  O 4   dxx     -0.00786   0.00212   0.00090  -0.00218   0.00095  -0.00061
 154  O 4   dxy      0.00390   0.00066   0.00151  -0.00324   0.00595   0.00140
 155  O 4   dyy     -0.00114   0.00031   0.00075  -0.00241   0.00726   0.00561
 156  O 4   dxz     -0.00297  -0.00045  -0.00064   0.00118  -0.00249   0.00004
 157  O 4   dyz     -0.00325   0.00068  -0.00002   0.00026  -0.00219  -0.00210
 158  O 4   dzz     -0.00694   0.00088   0.00001   0.00006  -0.00110  -0.00097
 159  C 5   s        0.00190  -0.03961  -0.15597  -0.11115  -0.00862  -0.00563
 160  C 5   s       -0.00316   0.07476   0.29512   0.21371   0.01796   0.01234
 161  C 5   px      -0.00135  -0.00219  -0.00434  -0.01856   0.04076  -0.01305
 162  C 5   py       0.00072   0.01334  -0.01650  -0.04304  -0.01582   0.01498
 163  C 5   pz       0.00048  -0.00457   0.01481   0.06532   0.02696   0.04898
 164  C 5   s       -0.00010   0.07024   0.31007   0.23168   0.01682   0.01400
 165  C 5   px      -0.00140  -0.00070  -0.00549  -0.00652   0.01606  -0.00204
 166  C 5   py      -0.00465   0.00447  -0.00175  -0.01789  -0.00536   0.00017
 167  C 5   pz      -0.00521   0.00271   0.00767   0.02144   0.01595   0.02032
 168  C 5   s        0.01498   0.03824   0.14263   0.03663   0.00698   0.02481
 169  C 5   px       0.00486   0.00129   0.00614   0.00376   0.00247   0.00202
 170  C 5   py       0.00501  -0.00311   0.02137   0.00413   0.00001   0.00476
 171  C 5   pz      -0.00093  -0.01539  -0.03024   0.00009  -0.00093  -0.00264
 172  C 5   dxx     -0.00015   0.00007   0.00295   0.00340   0.00317   0.00074
 173  C 5   dxy      0.00001  -0.00061  -0.00101  -0.00176  -0.00022  -0.00219
 174  C 5   dyy      0.00028   0.00108  -0.00195  -0.00234  -0.00174   0.00002
 175  C 5   dxz      0.00014  -0.00013   0.00129   0.00154  -0.00128  -0.00145
 176  C 5   dyz     -0.00001  -0.00016   0.00473   0.00943   0.00169   0.00268
 177  C 5   dzz      0.00065   0.00017  -0.00132  -0.00482  -0.00315  -0.00240
 178  H 4   s       -0.00137   0.02297   0.11399   0.09267  -0.00544  -0.00792
 179  H 4   s       -0.00265   0.00192   0.01431   0.01846  -0.00273  -0.01248
 180  H 5   s       -0.00340   0.02283   0.11148   0.08759   0.03441   0.00265
 181  H 5   s       -0.00145   0.00047   0.01359   0.01655   0.01551  -0.00176
 182  H 6   s       -0.00043   0.03144   0.11203   0.10217   0.00478   0.03482
 183  H 6   s        0.00436   0.00129   0.01731   0.03144  -0.00006   0.02689
                        19        20        21        22        23        24
 eigenvalues:         -0.157    -0.144    -0.136    -0.113    -0.108    -0.098
   1  C 1   s        0.00255   0.05394  -0.02327  -0.00918   0.01392   0.00003
   2  C 1   s       -0.00296  -0.12064   0.04653   0.02436  -0.03182  -0.00070
   3  C 1   px      -0.02761   0.01245   0.10248   0.01284   0.05677  -0.13475
   4  C 1   py      -0.02193   0.09160  -0.00353   0.09134  -0.05538   0.05433
   5  C 1   pz       0.03678   0.03669   0.03028  -0.16756   0.01323   0.04137
   6  C 1   s       -0.02193  -0.16504   0.08057   0.02294  -0.02320  -0.01189
   7  C 1   px      -0.01924   0.00300   0.05002   0.00990   0.01036  -0.04203
   8  C 1   py      -0.00424   0.04196   0.02372   0.02149  -0.02149   0.01597
   9  C 1   pz       0.01347   0.02110   0.02729  -0.07572   0.00171   0.01566
  10  C 1   s       -0.09776   0.20387  -0.04753  -0.00641  -0.05788  -0.09658
  11  C 1   px       0.03302  -0.04072  -0.04567   0.01978   0.04884  -0.01646
  12  C 1   py      -0.01875  -0.00868  -0.03057  -0.00095  -0.00181  -0.02840
  13  C 1   pz      -0.01195   0.00737   0.02764  -0.01619  -0.01304   0.01135
  14  C 1   dxx      0.00276   0.00056  -0.00624   0.00107   0.00290  -0.00280
  15  C 1   dxy      0.00228  -0.00238  -0.00238  -0.00199  -0.00007  -0.00158
  16  C 1   dyy     -0.00264   0.00509   0.00004  -0.00654  -0.00075   0.00059
  17  C 1   dxz     -0.00330   0.00055  -0.00242   0.00190   0.00435   0.00423
  18  C 1   dyz      0.00251   0.00112   0.00112   0.00352  -0.00158  -0.00173
  19  C 1   dzz      0.00089   0.00460   0.00012   0.00115   0.00184   0.00357
  20  O 1   s       -0.00492  -0.05637   0.00750   0.01073   0.00079  -0.01696
  21  O 1   s        0.01017   0.11932  -0.01719  -0.02040   0.00067   0.03649
  22  O 1   px      -0.01334   0.02026   0.06705   0.01166   0.02881  -0.08299
  23  O 1   py      -0.02058  -0.13716   0.02015   0.14395  -0.01302  -0.05958
  24  O 1   pz       0.00466  -0.14427   0.03443  -0.07722   0.02467  -0.06039
  25  O 1   s        0.02282   0.23673  -0.02301  -0.06050  -0.01387   0.07364
  26  O 1   px      -0.00589   0.00956   0.03601   0.00687   0.01815  -0.04889
  27  O 1   py      -0.00719  -0.05079   0.01093   0.07396  -0.01068  -0.02446
  28  O 1   pz       0.00526  -0.05845   0.01951  -0.05367   0.01093  -0.02755
  29  O 1   s        0.01646   0.02224  -0.00187  -0.00428   0.02156   0.00509
  30  O 1   px      -0.00191   0.00468   0.00496  -0.00230  -0.00200  -0.00423
  31  O 1   py       0.00083  -0.01106   0.00552   0.01057   0.00465  -0.01062
  32  O 1   pz       0.00369  -0.01158   0.00313   0.00571   0.00814  -0.01059
  33  O 1   dxx     -0.00007  -0.00177  -0.00127   0.00085   0.00094  -0.00011
  34  O 1   dxy     -0.00060   0.00097   0.00374  -0.00008   0.00141  -0.00546
  35  O 1   dyy     -0.00224  -0.00618   0.00024   0.01162  -0.00118  -0.00186
  36  O 1   dxz     -0.00088   0.00093   0.00327   0.00103   0.00188  -0.00359
  37  O 1   dyz      0.00021  -0.00723   0.00219   0.00073   0.00024  -0.00275
  38  O 1   dzz      0.00078  -0.00702   0.00177  -0.00830   0.00273  -0.00166
  39  C 2   s        0.00357  -0.00770   0.01181  -0.00106  -0.02228   0.00332
  40  C 2   s       -0.00810   0.01606  -0.02711   0.00174   0.05839  -0.01007
  41  C 2   px      -0.02032   0.07945   0.02526  -0.00740  -0.21748   0.14010
  42  C 2   py      -0.12357   0.11968   0.09633  -0.03484  -0.08810   0.00745
  43  C 2   pz       0.13459   0.06689   0.10867  -0.14299  -0.13647  -0.02247
  44  C 2   s       -0.01012  -0.00266  -0.05919   0.02308   0.05533  -0.01070
  45  C 2   px      -0.01423   0.02985   0.00002   0.01205  -0.06104   0.05424
  46  C 2   py      -0.04352   0.02671   0.01997   0.01091  -0.00379  -0.00263
  47  C 2   pz       0.05250   0.01049   0.02716  -0.04584  -0.02547  -0.01749
  48  C 2   s        0.11700  -0.00573   0.20010  -0.06854  -0.18286   0.16440
  49  C 2   px       0.02538  -0.04046   0.01054   0.01830  -0.02308   0.03078
  50  C 2   py      -0.02312   0.04465   0.03486  -0.00981  -0.03182  -0.01025
  51  C 2   pz       0.00451   0.03892   0.04650  -0.04112  -0.06020  -0.00154
  52  C 2   dxx      0.00198  -0.00292   0.00176   0.00118   0.00603  -0.00320
  53  C 2   dxy      0.00153   0.00710  -0.00290   0.00124   0.00928  -0.01132
  54  C 2   dyy     -0.00508  -0.00116  -0.00130  -0.00689  -0.01260   0.00166
  55  C 2   dxz     -0.00375   0.00525  -0.00289   0.00024   0.01392  -0.00433
  56  C 2   dyz      0.00271   0.00081   0.00042   0.00133   0.00231   0.00148
  57  C 2   dzz      0.00512   0.00300   0.00264   0.00415  -0.00337   0.00300
  58  O 2   s       -0.00480  -0.02645  -0.02484   0.01296   0.04946  -0.01891
  59  O 2   s        0.00920   0.05595   0.05187  -0.02668  -0.09936   0.03709
  60  O 2   px      -0.04367  -0.10349  -0.14959   0.12432   0.35949  -0.11018
  61  O 2   py      -0.09442   0.01349   0.03485   0.01682   0.04819  -0.00104
  62  O 2   pz       0.08619  -0.05992  -0.00367  -0.05343   0.12452  -0.13150
  63  O 2   s        0.02272   0.11264   0.10796  -0.05619  -0.22743   0.09188
  64  O 2   px      -0.02146  -0.04099  -0.06956   0.06265   0.16787  -0.04553
  65  O 2   py      -0.05237   0.01127   0.02571   0.00604   0.01651   0.00811
  66  O 2   pz       0.05020  -0.02596   0.00603  -0.03547   0.04814  -0.06811
  67  O 2   s       -0.01093   0.01107  -0.00985   0.00584  -0.00822   0.00995
  68  O 2   px      -0.00763  -0.01425  -0.02472   0.01561   0.06021  -0.01637
  69  O 2   py      -0.00520   0.00578   0.00133  -0.00005   0.00204  -0.00258
  70  O 2   pz       0.00046  -0.00597  -0.00592   0.00125   0.02817  -0.01254
  71  O 2   dxx     -0.00404  -0.00561  -0.00913   0.00810   0.01512  -0.00160
  72  O 2   dxy     -0.00679   0.00218   0.00180   0.00145   0.00305  -0.00051
  73  O 2   dyy     -0.00403   0.00005   0.00074  -0.00067  -0.00182   0.00057
  74  O 2   dxz      0.00457  -0.00275  -0.00092  -0.00244   0.00728  -0.00625
  75  O 2   dyz     -0.00114   0.00010   0.00206  -0.00106   0.00103  -0.00022
  76  O 2   dzz      0.00563  -0.00179   0.00162  -0.00389   0.00038  -0.00458
  77  C 3   s        0.00020   0.00138   0.00168   0.00683   0.00279   0.00396
  78  C 3   s       -0.00162  -0.00387  -0.00514  -0.01506  -0.00537  -0.00921
  79  C 3   px      -0.05825   0.30928  -0.01474  -0.01830   0.11845  -0.19050
  80  C 3   py      -0.17558  -0.12811  -0.14123   0.07295   0.04271   0.00077
  81  C 3   pz       0.31730  -0.05121   0.03568   0.03996   0.13036  -0.00118
  82  C 3   s        0.00051   0.01739   0.00979  -0.03438  -0.02960  -0.01114
  83  C 3   px      -0.01669   0.13515  -0.00123  -0.00758   0.06055  -0.09195
  84  C 3   py      -0.08293  -0.07304  -0.07223   0.03293   0.03126  -0.00322
  85  C 3   pz       0.14780  -0.02318   0.00631   0.03502   0.07111  -0.00768
  86  C 3   s        0.03048  -0.07187  -0.14664   0.06230   0.15668  -0.09281
  87  C 3   px      -0.00339   0.05836  -0.00373  -0.00912   0.02435  -0.05539
  88  C 3   py      -0.03297  -0.00362   0.01073  -0.00810  -0.03285   0.02624
  89  C 3   pz       0.03604   0.00141   0.02160   0.00338   0.00169   0.01416
  90  C 3   dxx      0.01464  -0.00255   0.00173   0.00093   0.00622   0.00016
  91  C 3   dxy      0.00090   0.00154   0.00061  -0.00074   0.00349  -0.00490
  92  C 3   dyy     -0.01058   0.00097  -0.00254  -0.00280  -0.00582  -0.00071
  93  C 3   dxz     -0.00431   0.01722  -0.00080  -0.00166   0.00903  -0.01286
  94  C 3   dyz      0.01017   0.00577   0.00660  -0.00304   0.00127   0.00021
  95  C 3   dzz     -0.00426  -0.00081  -0.00177   0.00285   0.00158   0.00046
  96  H 1   s        0.07661   0.14364  -0.00077   0.00130   0.12169  -0.10823
  97  H 1   s        0.04296   0.10520  -0.00493  -0.00248   0.10284  -0.07643
  98  H 2   s       -0.21248  -0.04987  -0.08925   0.01656  -0.03644  -0.00294
  99  H 2   s       -0.15457  -0.03546  -0.07033   0.02351  -0.02978   0.00102
 100  H 3   s        0.14740  -0.19034   0.01639   0.02642  -0.02067   0.10818
 101  H 3   s        0.11313  -0.15445   0.01920   0.02267  -0.02014   0.10048
 102  C 4   s       -0.02189  -0.01768   0.07665   0.00628  -0.00419  -0.00931
 103  C 4   s        0.05072   0.03691  -0.18097  -0.01536   0.00703   0.02337
 104  C 4   px       0.04492  -0.00686  -0.18049  -0.03730  -0.02006   0.04468
 105  C 4   py       0.02537   0.07051  -0.10806   0.03383  -0.05355   0.13877
 106  C 4   pz       0.01717   0.05820  -0.03020  -0.13776   0.06994   0.06098
 107  C 4   s        0.05466   0.06026  -0.18592  -0.01286   0.02510   0.02056
 108  C 4   px       0.00598  -0.01393  -0.01934  -0.01274  -0.00424   0.00867
 109  C 4   py      -0.00092   0.03072  -0.02640   0.01878  -0.03522   0.03980
 110  C 4   pz       0.00601   0.01389  -0.00213  -0.05350   0.04249   0.03363
 111  C 4   s       -0.04310  -0.04463   0.16483  -0.03155  -0.06673   0.07509
 112  C 4   px       0.01359   0.00751  -0.04455   0.01176   0.00478  -0.02789
 113  C 4   py       0.01227   0.00209  -0.01026  -0.00687   0.01485   0.01764
 114  C 4   pz      -0.00244   0.00260  -0.01669   0.00067  -0.00405  -0.00657
 115  C 4   dxx     -0.00189  -0.00316   0.00603   0.00198  -0.00360  -0.00269
 116  C 4   dxy      0.00157  -0.00317   0.00039  -0.00095  -0.00029   0.00283
 117  C 4   dyy     -0.00176  -0.00122   0.00724  -0.00131   0.00122  -0.00050
 118  C 4   dxz     -0.00089   0.00030  -0.00267   0.00130  -0.00015  -0.00077
 119  C 4   dyz     -0.00055   0.00083   0.00298   0.00045   0.00037  -0.00259
 120  C 4   dzz     -0.00233  -0.00170   0.00837   0.00221   0.00136  -0.00113
 121  O 3   s        0.01809   0.01004  -0.05689  -0.03145   0.01844   0.01012
 122  O 3   s       -0.03773  -0.02202   0.12136   0.06629  -0.03910  -0.02299
 123  O 3   px      -0.02896  -0.03140   0.08998   0.13127  -0.09992  -0.02111
 124  O 3   py       0.05310   0.05761  -0.19169  -0.06516  -0.00151   0.09389
 125  O 3   pz      -0.04529   0.01170   0.17545   0.04890  -0.00527   0.04046
 126  O 3   s       -0.07465  -0.03681   0.22161   0.13742  -0.08655  -0.03637
 127  O 3   px      -0.00883  -0.01550   0.02996   0.05901  -0.04813  -0.01096
 128  O 3   py       0.02687   0.03004  -0.09590  -0.02786  -0.00652   0.04987
 129  O 3   pz      -0.01952   0.00863   0.08265   0.01450   0.00723   0.02805
 130  O 3   s        0.00302   0.00146   0.01465   0.02453  -0.00882  -0.03000
 131  O 3   px      -0.00717  -0.00234   0.02224   0.01610  -0.00819   0.01135
 132  O 3   py       0.00277   0.00566  -0.01972  -0.00879   0.00203   0.00846
 133  O 3   pz      -0.00390  -0.00113   0.02221   0.01103  -0.00333   0.00204
 134  O 3   dxx      0.00089   0.00165  -0.00002  -0.00649   0.00579   0.00049
 135  O 3   dxy     -0.00233  -0.00363   0.00720   0.00324  -0.00075  -0.00404
 136  O 3   dyy      0.00237   0.00258  -0.00676  -0.00275   0.00015   0.00477
 137  O 3   dxz      0.00161  -0.00039  -0.00536  -0.00308   0.00149  -0.00270
 138  O 3   dyz     -0.00245  -0.00137   0.00925   0.00189   0.00070  -0.00315
 139  O 3   dzz      0.00208  -0.00211  -0.00681   0.00069  -0.00104  -0.00364
 140  O 4   s        0.01248   0.02094  -0.06273   0.01824  -0.01472   0.01897
 141  O 4   s       -0.02510  -0.04444   0.13378  -0.03856   0.02915  -0.03892
 142  O 4   px       0.02840  -0.03564  -0.04577  -0.04650   0.00457   0.01111
 143  O 4   py      -0.04991  -0.02242   0.21030  -0.10410   0.08175  -0.06922
 144  O 4   pz       0.04485   0.08241  -0.17403  -0.02476  -0.01408   0.13144
 145  O 4   s       -0.05232  -0.08699   0.25009  -0.08358   0.07406  -0.08091
 146  O 4   px       0.01975  -0.01715  -0.03202  -0.02379  -0.00160   0.00987
 147  O 4   py      -0.02258  -0.00040   0.09155  -0.04829   0.03293  -0.02793
 148  O 4   pz       0.02208   0.04045  -0.08213  -0.02169  -0.00017   0.06625
 149  O 4   s        0.00534  -0.02358   0.01513  -0.00122   0.03268  -0.01602
 150  O 4   px      -0.00541   0.00278   0.00347  -0.00692  -0.00420  -0.00324
 151  O 4   py      -0.00562  -0.00277   0.02747  -0.01353   0.00534  -0.01409
 152  O 4   pz       0.00488   0.00353  -0.01828   0.00324  -0.00215   0.02076
 153  O 4   dxx     -0.00126   0.00161   0.00143   0.00147  -0.00092  -0.00070
 154  O 4   dxy     -0.00115   0.00104   0.00320   0.00316  -0.00021  -0.00065
 155  O 4   dyy      0.00271  -0.00056  -0.01040   0.00644  -0.00439   0.00002
 156  O 4   dxz      0.00051  -0.00200  -0.00142   0.00016  -0.00086  -0.00029
 157  O 4   dyz     -0.00296  -0.00359   0.01068   0.00081   0.00119  -0.00646
 158  O 4   dzz      0.00236   0.00498  -0.00666  -0.00314   0.00032   0.00568
 159  C 5   s        0.01827  -0.00156   0.00759  -0.00435   0.00078  -0.00255
 160  C 5   s       -0.04000   0.00317  -0.01513   0.01462  -0.00053   0.00454
 161  C 5   px      -0.07823  -0.00339   0.10468  -0.10531   0.21579   0.28876
 162  C 5   py       0.09746   0.07101   0.05598   0.18056   0.00972   0.07040
 163  C 5   pz      -0.01465   0.08420   0.03742   0.24277   0.05737   0.09839
 164  C 5   s       -0.04113   0.00093  -0.02709  -0.01283   0.00127   0.01271
 165  C 5   px      -0.03543   0.00271   0.04361  -0.04778   0.10399   0.13398
 166  C 5   py       0.04715   0.02793   0.02455   0.07129   0.00286   0.02639
 167  C 5   pz      -0.01790   0.03764   0.01426   0.11020   0.02662   0.04233
 168  C 5   s       -0.02913  -0.06343  -0.10592   0.03595   0.07408  -0.01835
 169  C 5   px      -0.00234  -0.00049   0.01168  -0.02316   0.03681   0.05625
 170  C 5   py       0.00068  -0.00026  -0.01112   0.03584   0.01541   0.01362
 171  C 5   pz      -0.00222   0.02940   0.03053   0.03245  -0.01110   0.02502
 172  C 5   dxx     -0.00474  -0.00165   0.00191  -0.00565   0.00648   0.00531
 173  C 5   dxy     -0.00039  -0.00351  -0.00602  -0.00784  -0.00964  -0.01522
 174  C 5   dyy      0.00239   0.00006  -0.00221  -0.00378  -0.00516  -0.00680
 175  C 5   dxz     -0.00355  -0.00283  -0.00122  -0.01029   0.00359   0.00278
 176  C 5   dyz     -0.00033   0.00236  -0.00261   0.00998  -0.00414  -0.00742
 177  C 5   dzz      0.00456   0.00058   0.00013   0.00733  -0.00121   0.00245
 178  H 4   s       -0.02639  -0.04630  -0.08139  -0.09482  -0.10368  -0.16997
 179  H 4   s       -0.01351  -0.03006  -0.05667  -0.07130  -0.07339  -0.13219
 180  H 5   s       -0.08161  -0.00356   0.05309  -0.05722   0.13374   0.16952
 181  H 5   s       -0.04301  -0.00682   0.04610  -0.03526   0.09349   0.11360
 182  H 6   s        0.04034   0.06522   0.00507   0.21967  -0.02785  -0.00471
 183  H 6   s        0.03645   0.04909   0.00634   0.18467  -0.01764  -0.00204
                        25        26        27        28        29        30
 eigenvalues:         -0.094    -0.083    -0.067    -0.058    -0.009     0.031
   1  C 1   s       -0.02033  -0.02713  -0.01882   0.00644   0.00818  -0.03082
   2  C 1   s        0.04914   0.06709   0.04614  -0.01529  -0.01605   0.06857
   3  C 1   px      -0.03043  -0.00995   0.03902  -0.01359  -0.00724   0.12840
   4  C 1   py      -0.09315  -0.21364  -0.13704  -0.03979   0.11383   0.09746
   5  C 1   pz      -0.01885  -0.15340   0.02610   0.15269  -0.21034   0.05411
   6  C 1   s        0.05311   0.07697   0.05131  -0.02697  -0.03267   0.11198
   7  C 1   px      -0.00423  -0.00126  -0.00593   0.00121   0.00930   0.10673
   8  C 1   py      -0.02747  -0.05393  -0.03818  -0.03780   0.07339   0.04075
   9  C 1   pz       0.00048  -0.03112   0.02624   0.04630  -0.10443   0.02536
  10  C 1   s       -0.14395  -0.39541  -0.05649   0.04524  -0.18448   0.28975
  11  C 1   px       0.04765   0.00774   0.01024   0.02881   0.04767   0.27620
  12  C 1   py      -0.05641  -0.03288  -0.03060  -0.00936   0.09246   0.06943
  13  C 1   pz       0.00286  -0.06065  -0.02336  -0.00210  -0.12555   0.04019
  14  C 1   dxx     -0.00314  -0.01467  -0.01008   0.00801  -0.00110   0.00243
  15  C 1   dxy     -0.00441  -0.00279   0.00664   0.00085   0.00084  -0.01868
  16  C 1   dyy     -0.00224   0.00491   0.00661  -0.00051  -0.01484  -0.00802
  17  C 1   dxz      0.00110  -0.00410   0.00098  -0.00897  -0.00047  -0.01606
  18  C 1   dyz      0.00644   0.00944   0.00899  -0.00529   0.00622  -0.00213
  19  C 1   dzz      0.00059   0.00035  -0.00117  -0.00280   0.01522   0.00193
  20  O 1   s        0.02196   0.05725   0.01621  -0.01182   0.00257  -0.00189
  21  O 1   s       -0.04419  -0.11693  -0.03016   0.02473  -0.00459   0.00000
  22  O 1   px      -0.01497  -0.01116  -0.01296   0.02744  -0.01268   0.40141
  23  O 1   py       0.09442   0.26993   0.05699  -0.16125   0.26809   0.00800
  24  O 1   pz       0.10304   0.25180   0.17501   0.03145  -0.24466  -0.08221
  25  O 1   s       -0.09890  -0.25378  -0.07505   0.04702  -0.01153   0.02066
  26  O 1   px      -0.00718  -0.00290  -0.00550   0.01796  -0.00886   0.25287
  27  O 1   py       0.04053   0.12155   0.01779  -0.08777   0.16216   0.01644
  28  O 1   pz       0.04565   0.11565   0.08911   0.02376  -0.15321  -0.04593
  29  O 1   s       -0.00673   0.01676  -0.01545  -0.00473   0.00912   0.00360
  30  O 1   px      -0.00583  -0.00210  -0.00451   0.00131  -0.00126   0.05637
  31  O 1   py       0.01917   0.04836   0.01211  -0.02026   0.02681  -0.00423
  32  O 1   pz       0.01760   0.04727   0.02631   0.00373  -0.02217  -0.02654
  33  O 1   dxx      0.00024  -0.00102  -0.00134   0.00161  -0.00042  -0.00169
  34  O 1   dxy     -0.00134  -0.00055   0.00024   0.00139  -0.00074   0.01366
  35  O 1   dyy      0.00231   0.00908  -0.00176  -0.00990   0.01823   0.00263
  36  O 1   dxz     -0.00046  -0.00064  -0.00033   0.00014  -0.00032   0.01174
  37  O 1   dyz      0.00490   0.01079   0.00553  -0.00104  -0.00235  -0.00059
  38  O 1   dzz      0.00410   0.00826   0.00863   0.00606  -0.01709  -0.00361
  39  C 2   s        0.00450   0.00067   0.01625  -0.00421  -0.00521  -0.01044
  40  C 2   s       -0.01140   0.00162  -0.03474   0.00705   0.01135   0.02059
  41  C 2   px       0.04805  -0.01338  -0.12106  -0.03084  -0.01659   0.03844
  42  C 2   py       0.01708   0.12454  -0.03766  -0.14970  -0.06294  -0.04476
  43  C 2   pz       0.03245   0.05790   0.07775   0.14733   0.12481  -0.02184
  44  C 2   s       -0.00963  -0.00973  -0.07420   0.03410   0.02819   0.07036
  45  C 2   px       0.00935  -0.02965  -0.04909   0.00232  -0.03321   0.06068
  46  C 2   py      -0.00109   0.03407  -0.01381  -0.06517  -0.05687  -0.01686
  47  C 2   pz       0.00648   0.00482   0.04855   0.08951   0.05378   0.01581
  48  C 2   s        0.19940   0.20625   0.08770   0.07130   0.22371   0.11615
  49  C 2   px       0.02949   0.01103  -0.00252  -0.01213  -0.00066   0.03916
  50  C 2   py      -0.01507   0.01450   0.01367  -0.05293  -0.11180  -0.09142
  51  C 2   pz      -0.00255   0.01062   0.04474   0.04474   0.11447  -0.03741
  52  C 2   dxx     -0.00360  -0.00301   0.00635   0.00270   0.00767   0.00280
  53  C 2   dxy     -0.00391  -0.00273   0.00229   0.00806   0.01392   0.00028
  54  C 2   dyy      0.00490   0.00288   0.00325   0.00710   0.00199  -0.00518
  55  C 2   dxz     -0.00175  -0.00016  -0.00185  -0.00242  -0.01870   0.00282
  56  C 2   dyz     -0.00154   0.00378  -0.00463  -0.00360   0.00760  -0.00347
  57  C 2   dzz      0.00157   0.00241  -0.00655  -0.01026  -0.01077  -0.00099
  58  O 2   s       -0.01095  -0.00738   0.00579  -0.00164   0.00016  -0.00334
  59  O 2   s        0.02323   0.01862  -0.01145   0.00431   0.00087   0.00804
  60  O 2   px      -0.08263  -0.07951  -0.00909  -0.04690  -0.11167   0.03240
  61  O 2   py      -0.00484   0.08272  -0.01011  -0.18530  -0.22586  -0.02109
  62  O 2   pz      -0.03573  -0.00507   0.17047   0.19629   0.27678  -0.01942
  63  O 2   s        0.04653   0.01669  -0.02540   0.01137  -0.01368   0.02629
  64  O 2   px      -0.04085  -0.04704  -0.01121  -0.02791  -0.07559   0.02413
  65  O 2   py       0.00028   0.04954  -0.00758  -0.11112  -0.14547  -0.00744
  66  O 2   pz      -0.01762  -0.00456   0.09921   0.11797   0.17469  -0.00843
  67  O 2   s       -0.00048  -0.00600   0.00173  -0.00220  -0.03478   0.03976
  68  O 2   px      -0.01218  -0.00930   0.00516  -0.00071  -0.02117   0.01656
  69  O 2   py       0.00159   0.00722  -0.00072  -0.01736  -0.02966   0.00055
  70  O 2   pz      -0.00522  -0.00024   0.01827   0.02438   0.03248  -0.00602
  71  O 2   dxx     -0.00282  -0.00435  -0.00419  -0.00425  -0.00669   0.00209
  72  O 2   dxy     -0.00047   0.00439  -0.00188  -0.01038  -0.01099   0.00042
  73  O 2   dyy      0.00092   0.00350  -0.00065  -0.00465  -0.00450  -0.00189
  74  O 2   dxz     -0.00178  -0.00100   0.00697   0.00938   0.00922   0.00031
  75  O 2   dyz     -0.00026   0.00282   0.00143  -0.00250  -0.00066  -0.00185
  76  O 2   dzz      0.00015   0.00152   0.00676   0.00913   0.01259  -0.00113
  77  C 3   s        0.00180  -0.01313   0.01059  -0.00057  -0.00504   0.00677
  78  C 3   s       -0.00456   0.03012  -0.02298   0.00313   0.01263  -0.01243
  79  C 3   px       0.00104   0.12751  -0.02031   0.04831   0.01034  -0.01631
  80  C 3   py       0.01966  -0.12934   0.07082   0.10841  -0.00820   0.04708
  81  C 3   pz      -0.08891  -0.01319  -0.08991  -0.10399  -0.04530   0.01758
  82  C 3   s        0.00027   0.06033  -0.04448  -0.00884   0.02580  -0.05097
  83  C 3   px      -0.00311   0.05100  -0.01074   0.01478   0.01444  -0.01802
  84  C 3   py      -0.00250  -0.06915   0.02800   0.05884  -0.00261   0.03881
  85  C 3   pz      -0.03933  -0.00403  -0.05506  -0.03428  -0.03148   0.01718
  86  C 3   s       -0.05304  -0.01364  -0.12614  -0.00777  -0.01581   0.05829
  87  C 3   px      -0.00431   0.03755  -0.00961   0.01707   0.01160  -0.02621
  88  C 3   py       0.01691  -0.02924   0.04842   0.03961   0.02229   0.01442
  89  C 3   pz      -0.00789   0.00714  -0.01800  -0.03779  -0.03857  -0.00583
  90  C 3   dxx     -0.00545  -0.00046  -0.00328  -0.00657  -0.00103   0.00001
  91  C 3   dxy     -0.00048   0.00290   0.00188   0.00095   0.00180  -0.00173
[...]
    64    8.947130138429e-03
    65    5.298117228619e-02
    66   -8.740403235401e-02
    67   -2.382973376808e-01
    68    2.952321819853e-02
    69   -1.675778827659e-02
    70    6.676981482975e-02
    71   -3.661829205586e-03
    72   -1.541268234395e-03
    73   -2.952187362681e-03
    74   -4.654572656934e-05
    75   -9.510000578866e-04
    76   -7.850417299433e-04
    77   -5.333535304683e-03
    78    1.208232497161e-02
    79   -3.512217585907e-04
    80    2.891870963958e-02
    81   -2.446171748378e-02
    82    5.252433646573e-02
    83    2.025487387436e-03
    84   -1.592130082810e-02
    85    2.492454251899e-02
    86    5.755499929215e+00
    87    4.796573277716e-01
    88   -1.951262045283e+00
    89   -6.871187389615e-01
    90   -1.090816753003e-03
    91    4.828988094170e-03
    92   -2.157267726699e-03
    93    1.160323303387e-03
    94    2.229613279073e-03
    95   -5.581521922226e-03
    96    9.892134897282e-04
    97   -1.799871716075e-01
    98    3.284225301752e-02
    99    2.790346626362e-02
   100   -1.269254431780e-02
   101   -1.504486851008e-01
   102    7.343960158196e-04
   103   -5.237817458877e-03
   104    4.539932787094e-03
   105    3.978667370647e-03
   106    1.072011900232e-02
   107    5.238673992283e-02
   108    6.418041187833e-02
   109    2.860608581065e-02
   110    7.593792231713e-03
   111   -9.642159753725e-01
   112    2.038264700237e-01
   113   -4.106492679329e-01
   114    1.256829468032e-01
   115   -1.351494984915e-03
   116    1.556435772653e-03
   117    2.140422709331e-04
   118    7.523824196462e-04
   119   -2.123055607685e-03
   120   -2.440439430079e-03
   121    3.178586171047e-03
   122   -1.222286546167e-02
   123    2.249386632102e-02
   124    1.975967462057e-02
   125   -1.639844872124e-02
   126   -1.560447151879e-03
   127    2.088595369626e-02
   128   -3.236010230847e-03
   129   -1.977933384423e-02
   130   -2.938756783971e-01
   131    4.996995130392e-02
   132    5.655312182068e-02
   133    1.565033459086e-01
   134   -1.365672791443e-03
   135   -8.819811227733e-04
   136   -9.611026941671e-04
   137    4.989701266499e-04
   138   -7.774768642216e-04
   139   -4.497695650827e-04
   140   -4.694949216792e-03
   141    1.280240750505e-02
   142   -4.205199324215e-02
   143   -8.478839713898e-03
   144   -1.815534885173e-02
   145    2.909553628500e-02
   146   -3.930408685760e-02
   147    6.578368393429e-03
   148   -1.283721447529e-02
   149   -2.564890708307e-01
   150    1.904341408619e-01
   151    1.132428886690e-01
   152   -1.322382608056e-01
   153   -2.441321997933e-04
   154   -3.534602881770e-04
   155    4.102038493784e-04
   156    3.770985349495e-04
   157   -6.088499128280e-04
   158    1.301450533376e-03
   159    3.826107847531e-02
   160   -9.060036053034e-02
   161    2.760023146971e-02
   162    1.622007524988e-02
   163   -5.769684661109e-02
   164   -1.635183851574e-01
   165    2.037700670472e-02
   166    9.253470816352e-02
   167   -1.015022262664e-01
   168   -5.225399165383e+00
   169   -9.259905214157e-01
   170   -1.732631996348e+00
   171    2.571993248928e+00
   172   -4.269505488519e-03
   173    7.012227474129e-04
   174    5.246484802900e-03
   175    1.049799910584e-03
   176   -2.616956907035e-03
   177   -1.218160483193e-02
   178   -2.374713720353e-02
   179    1.196614357261e-01
   180   -1.385783958273e-02
   181    1.218473895525e-01
   182   -2.136683519456e-02
   183    4.004869687066e-02
Sym=X
Ene= 0.265725
Spin=Alpha
Occup=0
     1   -1.900190390316e-03
     2    2.206129735040e-02
     3   -2.739684357345e-02
     4   -4.137464007505e-03
     5   -2.347687964874e-03
     6   -1.177109475123e-01
     7    4.902262740213e-03
     8   -3.447787035116e-02
     9    1.208650509985e-02
    10   -2.335693007033e+01
    11   -4.204955566333e-02
    12   -4.950007226148e+00
    13   -4.296085670006e+00
    14    2.534374125286e-03
    15   -1.451290247202e-03
    16    4.734105321603e-04
    17    1.259346382768e-03
    18   -2.363671509562e-03
    19    2.943898971012e-03
    20    3.663358999394e-03
    21    7.004682435658e-03
    22   -1.513371413996e-02
    23    1.639367226545e-02
    24   -3.378857861590e-03
    25   -1.002262198004e-01
    26   -1.222496959026e-02
    27   -1.753442355675e-02
    28   -2.167383258407e-02
    29    8.127142447654e-01
    30    1.567364228722e-01
    31    5.299793798200e-01
    32    4.415176261058e-01
    33    3.764666353219e-03
    34    4.846738611603e-03
    35    3.297859510011e-03
    36   -8.298659273411e-04
    37   -8.958812452978e-04
    38    8.000837177389e-04
    39   -3.608473255493e-03
    40    2.608697287117e-02
    41    1.019731521317e-02
    42   -2.001326581403e-02
    43    9.757378722761e-02
    44   -1.150224988176e-01
    45    1.893304133245e-01
    46   -2.914891184621e-02
    47    1.741520172024e-01
    48    3.060315558414e+01
    49    6.408715373515e+00
    50    1.550886627932e+00
    51    4.648703163404e+00
    52   -5.081130610665e-03
    53    2.007956283004e-03
    54    2.956291767078e-03
    55   -9.963901947987e-03
    56   -5.051427555704e-03
    57   -4.450177717963e-04
    58   -1.776035122824e-02
    59    4.448587203750e-02
    60   -5.148807241582e-02
    61    5.236679365143e-02
    62   -5.766802244193e-02
    63    1.497490807965e-01
    64    7.056173282410e-02
    65    4.243986403731e-02
    66   -5.059668042069e-03
    67    9.584087916876e-02
    68   -4.861970926281e-01
    69    2.031736040244e-01
    70   -2.287048973337e-01
    71    3.217236836751e-03
    72    8.374240514907e-04
    73    1.694351412765e-03
    74    3.498341648014e-03
    75    4.681014817653e-03
    76    2.707188229228e-03
    77   -3.135780419695e-03
    78    1.977287130337e-02
    79   -8.560496196746e-02
    80    1.879269267461e-03
    81    1.068844509169e-02
    82   -8.858957265617e-02
    83   -1.521799547156e-01
    84    8.119594921931e-02
    85   -1.221195705313e-02
    86   -1.349626574523e+01
    87    2.294070645130e-01
    88    3.597898308409e+00
    89    1.821426834160e+00
    90   -4.071374760398e-03
    91    9.707290687145e-03
    92   -6.266866955143e-04
    93    4.026965468255e-03
    94   -4.364066798904e-03
    95    2.457532173759e-03
    96   -3.427895660141e-02
    97    6.607542986787e-02
    98    9.985889562121e-03
    99   -4.437606447903e-02
   100   -8.390702628402e-03
   101   -2.376310583257e-02
   102   -7.810204543883e-03
   103   -1.968253842856e-03
   104    9.702902582994e-03
   105   -1.576016047322e-02
   106   -1.410042731031e-02
   107    1.599561729912e-01
   108   -4.845047355433e-02
   109   -1.029412674095e-02
   110    3.444404890423e-02
   111    5.532457397304e+00
   112   -2.512005013864e-01
   113   -1.200598860622e-01
   114    4.926210451583e-01
   115   -2.732556152115e-03
   116   -3.232552728884e-03
   117    1.194080673864e-04
   118   -2.641042196360e-03
   119    2.167249480648e-03
   120   -1.706337410551e-03
   121    7.784775291532e-03
   122   -1.640447566192e-02
   123   -2.559415768642e-02
   124    6.283206071596e-03
   125   -3.283825288442e-03
   126   -7.318531488512e-02
   127    9.360675478010e-03
   128    7.763266125692e-03
   129    5.553599029507e-03
   130    4.588782070058e-01
   131   -4.551858246489e-01
   132   -1.071205301437e-01
   133   -1.230542855955e-01
   134   -2.229306451860e-05
   135    1.331569194486e-04
   136    1.490062328958e-03
   137    9.864744261654e-04
   138   -1.563175112232e-04
   139    2.780975000401e-04
   140    2.651919824022e-03
   141   -1.013289148073e-02
   142   -3.765784610267e-02
   143   -2.515886249455e-03
   144   -8.413090200465e-03
   145   -8.060085322322e-03
   146   -2.129182170273e-02
   147    8.436073875999e-03
   148    1.239908140124e-02
   149    3.855803986943e-01
   150   -1.714537308362e-01
   151   -1.955452655253e-01
   152   -1.889175607425e-01
   153   -1.622617186380e-03
   154    7.564683236412e-04
   155   -1.997662926271e-03
   156    8.120915524129e-04
   157    6.207229635048e-05
   158    1.570567772429e-03
   159    6.083372366871e-03
   160   -1.995051701937e-02
   161   -7.125242056575e-02
   162   -1.578330222255e-02
   163    1.987574094566e-02
   164    1.659967870197e-02
   165    5.118362855029e-02
   166   -7.248866310901e-03
   167    4.494545052293e-02
   168   -2.330821082777e-01
   169    1.277363222349e+00
   170   -3.943298607197e-01
   171    3.806593739307e-01
   172   -4.719625131266e-03
   173    1.670422277800e-03
   174    2.609022030559e-03
   175    8.981061781990e-04
   176    1.057628270948e-04
   177   -1.955406056710e-03
   178    5.029563284540e-03
   179    8.050004312361e-02
   180   -1.811766976375e-02
   181   -2.908235302356e-02
   182    3.438413317643e-03
   183   -3.576373003376e-02
Sym=X
Ene= 0.276941
Spin=Alpha
Occup=0
     1   -2.980950620008e-03
     2    1.628348228604e-02
     3    1.964292646053e-02
     4    1.065018193654e-02
     5    1.919645901968e-02
     6   -8.766183921524e-02
     7   -4.136329611753e-02
     8   -5.001742506341e-02
     9    8.541108592775e-02
    10   -8.622862251850e+00
    11   -2.171274279003e+00
    12   -2.509779771231e+00
    13    6.753409654697e-01
    14   -2.071135149189e-03
    15    3.575458612989e-03
    16    5.847515296221e-03
    17   -1.867822861968e-04
    18    2.729333442316e-03
    19   -1.806828177260e-03
    20   -5.248497744870e-03
    21    2.638101059393e-02
    22   -1.540166539573e-03
    23    1.641030359394e-02
    24   -3.747195827549e-02
    25   -2.194617734162e-02
    26    3.892908188159e-03
    27    1.063968452625e-02
    28   -3.604652384634e-02
    29    1.097077932091e-01
    30    2.464399072759e-02
    31    1.075806698298e-01
    32   -5.142608273212e-02
    33    2.168466809906e-03
    34    5.882052872918e-03
    35    1.641533596257e-03
    36    5.619790111690e-04
    37    8.463155324903e-04
    38   -3.657683333400e-04
    39    1.337303625302e-02
    40   -1.660849572387e-03
    41    3.033193722384e-02
    42    1.059837765033e-01
    43   -9.429694131990e-02
    44   -2.700637252326e-01
    45    5.765569182337e-02
    46    2.077533598470e-01
    47   -2.870818396105e-02
    48    8.908342283585e+00
    49    3.142734956518e+00
    50    1.654672576721e+00
    51    7.518201011709e-01
    52    3.388982400436e-03
    53    8.390032685184e-03
    54   -4.057789904662e-03
    55    4.266383645365e-03
    56   -1.050422346389e-03
    57    2.838173586843e-04
    58   -1.489949374226e-02
    59    5.914927088936e-02
    60   -2.863921368028e-02
    61   -3.900694617023e-02
    62    4.798215644714e-02
    63    2.094628899251e-02
    64    4.055585455263e-02
    65   -3.852308075357e-02
    66    5.440296795114e-02
    67    7.465719646751e-01
    68   -1.937499656445e-01
    69    2.825984868725e-02
    70    9.664518830655e-02
    71    9.548292655888e-03
    72    5.824174762188e-03
    73    4.401399029720e-03
    74    2.354586232730e-03
    75    4.034121601236e-04
    76    1.114158995999e-03
    77   -7.326974681816e-03
    78    4.016352689025e-02
    79    4.174067804134e-02
    80    6.233652930757e-02
    81   -9.895080578145e-02
    82   -4.257533155029e-02
    83    2.512546029510e-02
    84    1.740500214758e-01
    85   -3.974234926686e-02
    86   -6.441795747951e+00
    87   -1.141677094919e+00
    88    9.761255596520e-01
    89    2.164074713740e+00
    90   -2.162586120904e-03
    91   -1.442005287863e-03
    92    1.034380089577e-02
    93   -2.090717690109e-03
    94   -1.981383760897e-03
    95    9.905732220735e-04
    96   -7.961937140055e-03
    97   -1.310203242232e-01
    98   -1.787933369652e-02
    99    1.399724675876e-01
   100    9.860501253929e-03
   101   -4.298682721318e-02
   102    1.748607934526e-02
   103    7.494388379310e-03
   104   -7.602603208209e-03
   105    1.552579915985e-02
   106    2.493597994019e-02
   107   -3.645422211373e-01
   108   -9.758956481197e-03
   109   -5.087192520590e-02
   110   -2.046014232425e-02
   111    7.575793052596e+00
   112   -2.820413609531e+00
   113   -9.489527047633e-01
   114   -7.919770683055e-01
   115    8.276715176647e-03
   116    2.051843457032e-03
   117    1.049571394240e-03
   118    2.021417045464e-03
   119   -5.602477045043e-04
   120    1.346071369008e-03
   121   -1.248616743556e-02
   122    3.013699309350e-02
   123    3.460759556341e-02
   124    2.312217129656e-03
   125   -1.470654418685e-02
   126    8.722528585976e-02
   127   -2.438681506626e-02
   128    1.038492891494e-02
   129   -2.795781547546e-02
   130    8.815541748583e-02
   131    2.732420338533e-01
   132    5.130550757302e-02
   133    5.101293983041e-02
   134    1.829140730664e-05
   135    1.139820607100e-05
   136   -1.092498575900e-03
   137   -1.652917475160e-03
   138    6.452350382232e-04
   139   -1.947661041315e-03
   140   -1.361284586812e-02
   141    4.796053718423e-02
   142    2.539530669954e-02
   143    9.919420293961e-03
   144   -1.536637158477e-02
   145    3.967973682376e-02
   146    1.516508217532e-02
   147   -3.420916423714e-02
   148   -6.314563528251e-03
   149    1.977039204888e-01
   150    9.136406847184e-02
   151    3.350908054968e-02
   152    1.661307470348e-01
   153    3.504971355583e-03
   154    4.141729242515e-03
   155    4.831096229131e-03
   156    2.897258784932e-04
   157   -4.648591833523e-04
   158   -3.244102406035e-03
   159   -1.470136588129e-02
   160    5.615141658332e-02
   161    3.288432437382e-02
   162    1.093179684953e-02
   163   -7.624349656181e-02
   164   -3.553670209817e-02
   165   -1.466506864410e-02
   166   -3.232703866684e-02
   167   -2.295173497260e-02
   168   -2.850595222940e+00
   169   -5.976154452676e-01
   170   -3.153349982114e-01
   171    8.134624451637e-01
   172    3.535865645282e-03
   173    3.747799384896e-04
   174    9.970279393844e-05
   175    3.212638388998e-03
   176   -1.288465119459e-03
   177    4.453436267389e-03
   178    5.147430927633e-03
   179    5.534107869025e-02
   180   -1.933150811632e-02
   181    1.452868355238e-01
   182    7.911046307614e-03
   183   -3.240480732274e-02
Sym=X
Ene= 0.279101
Spin=Alpha
Occup=0
     1   -8.353688089975e-03
     2    3.194815915664e-02
     3    1.867065389189e-02
     4    8.681026237465e-03
     5    4.755318187004e-02
     6   -8.234885254729e-02
     7    1.628009759250e-02
     8    3.592042214448e-03
     9    3.961784669257e-02
    10   -8.881916154055e+00
    11   -9.326341385322e-01
    12   -1.030575628069e-01
    13   -7.982970794958e-02
    14    4.191989477472e-03
    15   -4.538414623272e-03
    16   -1.145357786574e-03
    17    1.936394349080e-03
    18   -2.297209182894e-03
    19    9.290374174222e-03
    20   -9.466344077522e-03
    21    3.580425249697e-02
    22   -1.048654258190e-02
    23    1.690243008765e-02
    24   -2.291615561764e-02
    25    1.377209738726e-02
    26   -1.087014440104e-02
    27    2.545716713131e-02
    28    1.466962853580e-03
    29    2.774110337728e-01
    30   -2.567189468518e-02
    31   -1.160501597942e-01
    32   -1.642067977659e-01
    33    3.053471893920e-03
    34    3.949710667947e-03
    35    2.566701158013e-03
    36   -1.233534831431e-04
    37    1.486425523868e-04
    38    1.859512893609e-03
    39   -5.970630024818e-03
    40    2.686449118061e-02
    41   -1.318375802363e-02
    42   -9.591872507198e-02
    43    1.514683986887e-01
    44   -5.639286188600e-02
    45   -3.395382051599e-02
    46   -1.161552445900e-01
    47    2.058052140088e-01
    48    5.985701528522e+00
    49    1.937907888235e+00
    50   -9.781687782834e-01
    51    1.492429556249e+00
    52   -5.146972824484e-04
    53   -5.525430682347e-03
    54    4.915414126978e-03
    55   -3.907804279836e-03
    56    8.770696949916e-03
    57    4.162479315760e-03
    58   -9.387390873697e-03
    59    2.617602973263e-02
    60    3.436726545137e-02
    61    6.413766066486e-02
    62   -9.442613032466e-02
    63    5.338997330794e-02
    64    5.039545870292e-02
    65    5.943449464921e-02
    66   -6.137457434866e-02
    67    1.103944510238e-01
    68   -1.183490716378e-01
    69    1.084065952958e-01
    70   -2.651677028638e-01
    71    1.253847359537e-03
    72    1.270342069362e-04
    73   -3.363414047186e-04
    74   -7.221026202854e-04
    75    1.617248028709e-03
    76    4.948953225196e-04
    77   -7.717711542563e-03
    78    1.781189379697e-02
    79    3.988668199530e-02
    80   -4.140209050991e-02
    81    8.080375188227e-02
    82    7.000659119756e-02
    83   -1.776815647176e-02
    84    9.643908434625e-03
    85    1.366811507226e-01
    86   -3.082968041459e+00
    87   -1.185354367661e+00
    88    1.645192105373e+00
    89   -4.246912798582e-01
    90    2.647819676106e-03
    91    8.367275731140e-03
    92   -1.060998232274e-02
    93   -2.184215280926e-03
    94    3.622056112457e-03
    95    7.566413391836e-04
    96   -2.293349418783e-03
    97   -2.163253456269e-02
    98    1.392369335201e-02
    99   -9.497933506147e-02
   100   -2.520320039482e-02
   101   -9.445990245967e-02
   102    3.876761271661e-03
   103    3.315971440740e-02
   104   -2.958570783719e-02
   105   -1.838938486546e-03
   106    7.528560206630e-03
   107   -2.074282968406e-01
   108   -4.674810567935e-02
   109   -1.771419364339e-02
   110   -3.871049518124e-02
   111    6.630117670578e+00
   112   -3.283991875303e+00
   113   -1.393722469458e+00
   114   -2.515483387843e-01
   115    8.464910596489e-03
   116    3.052681720028e-04
   117   -6.942061304118e-04
   118    5.972859114219e-03
   119   -9.925260240209e-04
   120    3.000262822455e-03
   121   -1.318316908925e-02
   122    3.551957566879e-02
   123    4.685114334898e-02
   124    2.598738233124e-02
   125    8.318945323391e-03
   126    8.517954186820e-02
   127   -1.515464902776e-02
   128    1.039054855731e-02
   129    9.381988335431e-03
   130   -4.833690179526e-02
   131    3.860483936882e-01
   132    1.896065881116e-01
   133   -1.144164159907e-01
   134    5.782330792081e-05
   135    1.518394605272e-03
   136    1.003288980677e-04
   137   -2.204103556603e-03
   138    1.873298421012e-03
   139   -2.475852364832e-03
   140   -1.323505196447e-02
   141    2.905763625609e-02
   142    3.758690013001e-02
   143    1.102775312924e-02
   144   -9.988575184884e-03
   145    1.076849557825e-01
   146   -2.092390085377e-02
   147   -5.102475359540e-03
   148   -1.297630470077e-02
   149   -3.240872023317e-01
   150    5.390873751543e-01
   151    1.362121087631e-01
   152    5.556384502448e-02
   153   -4.203143531810e-03
   154    1.029428843586e-05
   155   -1.074992974063e-03
   156   -7.064699707159e-04
   157   -8.170019755338e-05
   158   -2.331418593033e-03
   159    1.127906820114e-02
   160   -6.298593256777e-03
   161   -3.519266650109e-02
   162   -4.285700186713e-02
   163    1.294302754432e-01
   164   -1.347485164722e-01
   165   -6.607194151156e-02
   166   -1.231811060227e-01
   167    1.392410257885e-01
   168   -1.197094543441e+00
   169    1.262849134099e-01
   170   -7.436210802420e-01
   171    2.423016385448e-01
   172   -7.938232453533e-04
   173    5.647275726340e-03
   174    6.005744676288e-03
   175   -1.772880516549e-03
   176   -1.040984851501e-03
   177   -8.121230007982e-03
   178   -1.014683034205e-02
   179   -1.225666495357e-01
   180    6.104213770214e-03
   181   -2.470999872891e-02
   182   -7.849332067835e-03
   183    8.487874803987e-02

======= END OF MOLDEN-FORMATTED INPUT FILE =======


        *************************************************************
        *                                                           *
        *  Thank you very much for using Q-Chem.  Have a nice day.  *
        *                                                           *
        *************************************************************


0 sent ACK to 0 
now end server 0 ... 
cleanup process ... done
