
Running Job 1 of 1 irc_reac_nbo_with_charge.qcin
qchem irc_reac_nbo_with_charge.qcin_54740.0 /tmp/irc_reac_nbo_with_charge.qcin/ 1
/programs/x86_64/lib/qchem-4.3.2/bin/mpi/mpirun_qchem -machinefile /var/spool/torque/aux//123209.vali -np 1 /programs/x86_64/lib/qchem-4.3.2/exe/qcprog.exe irc_reac_nbo_with_charge.qcin_54740.0 /tmp/irc_reac_nbo_with_charge.qcin/

Process 0 of 1 is on bt2600-04.csail.mit.edu - thread support 0
initial socket setup ...start
initial socket setup ...done 
now start server 0 ... 

cmd = ssh thor /programs/x86_64/lib/qchem-4.3.2/bin/get_hostid 2115024802 > /tmp/irc_reac_nbo_with_charge.qcin/lic.dat
                  Welcome to Q-Chem
     A Quantum Leap Into The Future Of Chemistry


 Q-Chem 4.3, Q-Chem, Inc., Pleasanton, CA (2015)

 Y. Shao,  Z. Gan,  E. Epifanovsky,  A. T. B. Gilbert,  M. Wormit,  
 J. Kussmann,  A. W. Lange,  A. Behn,  J. Deng,  X. Feng,  D. Ghosh,  
 M. Goldey,  P. R. Horn,  L. D. Jacobson,  I. Kaliman,  R. Z. Khaliullin,  
 T. Kus,  A. Landau,  J. Liu,  E. I. Proynov,  Y. M. Rhee,  R. M. Richard,  
 M. A. Rohrdanz,  R. P. Steele,  E. J. Sundstrom,  H. L. Woodcock III,  
 P. M. Zimmerman,  D. Zuev,  B. Albrecht,  E. Alguire,  B. Austin,  
 S. A. Baeppler,  G. J. O. Beran,  Y. A. Bernard,  E. Berquist,  
 K. Brandhorst,  K. B. Bravaya,  S. T. Brown,  D. Casanova,  C.-M. Chang,  
 Y. Chen,  S. H. Chien,  K. D. Closser,  D. L. Crittenden,  M. Diedenhofen,  
 R. A. DiStasio Jr.,  H. Do,  A. D. Dutoi,  R. G. Edgar,  P.-T. Fang,  
 S. Fatehi,  Q. Feng,  L. Fusti-Molnar,  A. Ghysels,  
 A. Golubeva-Zadorozhnaya,  J. Gomes,  A. Gunina,  M. W. D. Hanson-Heine,  
 P. H. P. Harbach,  A. W. Hauser,  E. G. Hohenstein,  Z. C. Holden,  K. Hui,  
 T.-C. Jagau,  H. Ji,  B. Kaduk,  K. Khistyaev,  Jaehoon Kim,  Jihan Kim,  
 R. A. King,  P. Klunzinger,  D. Kosenkov,  T. Kowalczyk,  C. M. Krauter,  
 K. U. Lao,  A. Laurent,  K. V. Lawler,  S. Lehtola,  S. V. Levchenko,  
 C. Y. Lin,  Y.-S. Lin,  F. Liu,  E. Livshits,  R. C. Lochan,  A. Luenser,  
 P. Manohar,  S. F. Manzer,  S.-P. Mao,  N. Mardirossian,  A. V. Marenich,  
 L. A. Martinez-Martinez,  S. A. Maurer,  N. J. Mayhall,  K. Nanda,  
 C. M. Oana,  R. Olivares-Amaya,  D. P. O'Neill,  J. A. Parkhill,  
 T. M. Perrine,  R. Peverati,  P. A. Pieniazek,  F. Plasser,  A. Prociuk,  
 D. R. Rehn,  E. Rosta,  N. J. Russ,  N. Sergueev,  S. M. Sharada,  
 S. Sharma,  D. W. Small,  A. Sodt,  T. Stauch,  T. Stein,  D. Stuck,  
 Y.-C. Su,  A. J. W. Thom,  T. Tsuchimochi,  L. Vogt,  O. Vydrov,  T. Wang,  
 M. A. Watson,  J. Wenzel,  A. White,  C. F. Williams,  V. Vanovschi,  
 S. Yeganeh,  S. R. Yost,  Z.-Q. You,  I. Y. Zhang,  X. Zhang,  Y. Zhao,  
 B. R. Brooks,  G. K. L. Chan,  D. M. Chipman,  C. J. Cramer,  
 W. A. Goddard III,  M. S. Gordon,  W. J. Hehre,  A. Klamt,  
 H. F. Schaefer III,  M. W. Schmidt,  C. D. Sherrill,  D. G. Truhlar,  
 A. Warshel,  X. Xu,  A. Aspuru-Guzik,  R. Baer,  A. T. Bell,  N. A. Besley,  
 J.-D. Chai,  A. Dreuw,  B. D. Dunietz,  T. R. Furlani,  S. R. Gwaltney,  
 C.-P. Hsu,  Y. Jung,  J. Kong,  D. S. Lambrecht,  W. Liang,  C. Ochsenfeld,  
 V. A. Rassolov,  L. V. Slipchenko,  J. E. Subotnik,  T. Van Voorhis,  
 J. M. Herbert,  A. I. Krylov,  P. M. W. Gill,  M. Head-Gordon

 Contributors to earlier versions of Q-Chem not listed above: 
 R. D. Adamson,  J. Baker,  E. F. C. Byrd,  A. K. Chakraborty,  C.-L. Cheng,  
 H. Dachsel,  R. J. Doerksen,  G. Hawkins,  A. Heyden,  S. Hirata,  
 G. Kedziora,  F. J. Keil,  C. Kelley,  P. P. Korambath,  W. Kurlancheek,  
 A. M. Lee,  M. S. Lee,  D. Liotard,  I. Lotan,  P. E. Maslen,  N. Nair,  
 D. Neuhauser,  R. Olson,  B. Peters,  J. Ritchie,  N. E. Schultz,  
 N. Shenvi,  A. C. Simmonett,  K. S. Thanthiriwatte,  Q. Wu,  W. Zhang

 Please cite Q-Chem as follows:
 Y. Shao et al., Mol. Phys. 113, 184-215 (2015)
 DOI: 10.1080/00268976.2014.952696

 Q-Chem 4.3.0 for Intel X86 Linux

 Parts of Q-Chem use Armadillo 5.200.1 (Boston Tea Smuggler).
 http://arma.sourceforge.net/

 Q-Chem begins on Wed Jun 14 12:09:38 2017  

Host: 
0

     Scratch files written to /tmp/irc_reac_nbo_with_charge.qcin//
 Oct1215 13750_ 19228  19214 4150   
 Parallel job on  1  processors
Processing $rem in /programs/x86_64/lib/qchem-4.3.2/config/preferences.
 MEM_TOTAL  2000 

Checking the input file for inconsistencies... 	...done.

--------------------------------------------------------------
User input:
--------------------------------------------------------------
$rem
JOBTYPE SP
EXCHANGE B3LYP
BASIS 6-31G(d)
NBO TRUE
$end

$nbo
nbosum
$end

$molecule
-2 1
C       -0.03200       -0.63000       -0.15000
C       -1.21300        0.38800       -0.24700
C       -1.15500        1.63200        0.66300
C        1.34500        0.18700        0.00600
C       -0.42900       -1.29600        1.25700
O        0.03000       -1.55100       -1.11100
O       -2.24000        0.21500       -0.90300
O        2.22900       -0.28600        0.78000
O        1.45900        1.23400       -0.70500
H       -0.25800        1.65400        1.28700
H       -1.14300        2.52100        0.02100
H       -2.05900        1.66200        1.29300
H       -1.19400       -2.04800        1.01900
H        0.47600       -1.76600        1.65200
H       -0.82800       -0.60400        2.02400
$end

--------------------------------------------------------------
 ----------------------------------------------------------------
             Standard Nuclear Orientation (Angstroms)
    I     Atom           X                Y                Z
 ----------------------------------------------------------------
    1      C       0.0792971944    -0.6221703204    -0.1745315951
    2      C      -1.2519222749     0.1928065146    -0.1100220381
    3      C      -1.2830759180     1.4306652350     0.8096166078
    4      C       1.3169231772     0.4055511287    -0.1695768226
    5      C      -0.0325183182    -1.3422166933     1.2571962114
    6      O       0.1702853535    -1.5219856998    -1.1531323503
    7      O      -2.3101255729    -0.1434366210    -0.6411908755
    8      O       2.3524305465     0.0813028031     0.4837596233
    9      O       1.1752160861     1.4567198286    -0.8693549765
   10      H      -0.3320261909     1.5969607383     1.3217876947
   11      H      -1.4911232926     2.3095529687     0.1876024268
   12      H      -2.0969993068     1.3155329989     1.5439797913
   13      H      -0.6909014274    -2.2075283424     1.0986388667
   14      H       0.9770596410    -1.6604214771     1.5318743135
   15      H      -0.4406838922    -0.7227145614     2.0793713587
 ----------------------------------------------------------------
 Molecular Point Group                 C1    NOp =  1
 Largest Abelian Subgroup              C1    NOp =  1
 Nuclear Repulsion Energy =   452.3854362912 hartrees
 There are       35 alpha and       35 beta electrons
 Requested basis set is 6-31G(d)
 There are 48 shells and 147 basis functions

 Total QAlloc Memory Limit   2000 MB
 Mega-Array Size        61 MB
 MEM_STATIC part        62 MB

                       Distance Matrix (Angstroms)
             C (  1)   C (  2)   C (  3)   C (  4)   C (  5)   O (  6)
   C (  2)  1.562208
   C (  3)  2.653063  1.542401
   C (  4)  1.608712  2.578328  2.961364
   C (  5)  1.606491  2.390090  3.074589  2.628948
   O (  6)  1.332519  2.459932  3.831813  2.448991  2.425516
   O (  7)  2.481189  1.230851  2.374336  3.698552  3.198194  2.883560
   O (  8)  2.468878  3.654637  3.891512  1.266594  2.883157  3.164128
   O (  9)  2.450633  2.839906  2.977050  1.270719  3.716838  3.156438
   H ( 10)  2.707896  2.206340  1.092918  2.522431  2.955104  4.013150
   H ( 11)  3.345499  2.150910  1.096644  3.411440  4.075166  4.386176
   H ( 12)  3.382934  2.170344  1.102278  3.926730  3.377567  4.523992
   H ( 13)  2.174288  2.745399  3.697385  3.530993  1.098805  2.506409
   H ( 14)  2.189923  3.331462  3.896753  2.697904  1.093595  2.807011
   H ( 15)  2.315290  2.507933  2.637981  3.069191  1.107409  3.385439
             O (  7)   O (  8)   O (  9)   H ( 10)   H ( 11)   H ( 12)
   O (  8)  4.801609
   O (  9)  3.841896  2.260205
   H ( 10)  3.285597  3.194655  2.663185
   H ( 11)  2.715662  4.452608  2.992298  1.771347
   H ( 12)  2.636093  4.737596  4.068355  1.801028  1.787434
   H ( 13)  3.147915  3.857291  4.558740  3.827888  4.677004  3.819346
   H ( 14)  4.222445  2.454342  3.939764  3.516871  4.864123  4.278585
   H ( 15)  3.351393  3.315706  4.007001  2.442669  3.725166  2.680388
             H ( 13)   H ( 14)
   H ( 14)  1.808069
   H ( 15)  1.796974  1.785789
 
 A cutoff of  1.0D-08 yielded   1007 shell pairs
 There are     10063 function pairs
 
 -------------------------------------------------------
 OpenMP Integral Computing Module                       
 Release: version 1.0, May 2013, Q-Chem Inc. Pittsburgh 
 -------------------------------------------------------
 Integral Job Info:
 Integral job number is                      11
 Integral operator is                         1
 short-range coefficients                     0
 long-range coefficients              100000000
 Omega coefficients                           0
 if combine SR and LR in K                    0
 Integral screening is                        0
 Integral computing path is                   2
 max size of driver memory is            800000
 size of driver memory is                593474
 size of scratch memory is              2260544
 max col of scratch BK array               1296
 max len of scratch array in speh3          155
 max len of scratch index in speh4           18
 max int batch size is                      520
 min int batch size is                       52
 fixed nKL is                                52
 max L of basis functions is                  2
 order of int derivative is                   0
 number of shells is                         48
 number of basis is                         147
 number of cartesian basis is               147
 number of contracted shell pairs          1007
 number of primitive shell pairs           3776
 maxK2 (contraction) of shell pair           36
 max number of K2 of shell pair               1
 max number of CS2 of shell pair            109
 max number of PS2 of shell pair            594
 mem total for path MDJ                   36808
 -------------------------------------------------------
 Smallest overlap matrix eigenvalue = 2.16E-03

 Scale SEOQF with 1.000000e-01/1.000000e-01/1.000000e-01

 Standard Electronic Orientation quadrupole field applied
 Nucleus-field energy     =     0.0000000055 hartrees
 Guess from superposition of atomic densities
 Warning:  Energy on first SCF cycle will be non-variational
 A restricted hybrid HF-DFT SCF calculation will be
 performed using Pulay DIIS extrapolation
 Exchange:     0.2000 Hartree-Fock + 0.0800 Slater + 0.7200 B88
 Correlation:  0.1900 VWN1RPA + 0.8100 LYP
 Using SG-1 standard quadrature grid
 SCF converges when DIIS error is below 1.0E-05
 CPU 0.00 s  wall 0.00 s
 Inaccurate integrated density:
   Number of electrons =    70
   Numerical integral  =    68.000552060744
   Relative error      =    -2.8563541989 %
 CPU 4.33 s  wall 5.13 s
 ---------------------------------------
  Cycle       Energy         DIIS Error
 ---------------------------------------
    1    -496.1603517557      6.02E-02
 CPU 0.00 s  wall 0.00 s
 CPU 3.83 s  wall 3.83 s
    2    -494.4950056802      1.36E-02
 CPU 0.00 s  wall 0.00 s
 CPU 3.87 s  wall 4.35 s
    3    -491.5140322830      3.23E-02
 CPU 0.00 s  wall 0.00 s
 CPU 3.83 s  wall 4.11 s
    4    -494.6092477424      1.11E-02
 CPU 0.00 s  wall 0.00 s
 CPU 3.78 s  wall 4.13 s
    5    -494.8971493226      1.76E-03
 CPU 0.00 s  wall 0.00 s
 CPU 3.71 s  wall 4.07 s
    6    -494.8977974899      2.00E-03
 CPU 0.00 s  wall 0.00 s
 CPU 3.64 s  wall 3.93 s
    7    -494.9063832031      4.92E-04
 CPU 0.00 s  wall 0.00 s
 CPU 3.51 s  wall 3.51 s
    8    -494.9068020702      2.27E-04
 CPU 0.00 s  wall 0.00 s
 CPU 3.45 s  wall 4.13 s
    9    -494.9069136881      5.24E-05
 CPU 0.00 s  wall 0.00 s
 CPU 3.25 s  wall 3.82 s
   10    -494.9069178731      2.23E-05
 CPU 0.00 s  wall 0.00 s
 CPU 2.96 s  wall 3.93 s
   11    -494.9069186946      6.86E-06 Convergence criterion met
 ---------------------------------------
 SCF time:  CPU 76.93 s  wall 95.95 s
 SCF   energy in the final basis set = -494.9069186946
 Total energy in the final basis set = -494.9069186946
 
 --------------------------------------------------------------
 
                    Orbital Energies (a.u.)
 --------------------------------------------------------------
 
 Alpha MOs
 -- Occupied --
-18.801 -18.712 -18.709 -18.653  -9.928  -9.890  -9.886  -9.858
 -9.844  -0.694  -0.636  -0.548  -0.537  -0.431  -0.372  -0.273
 -0.184  -0.142  -0.133  -0.113  -0.093  -0.082  -0.074  -0.048
 -0.033  -0.020  -0.007  -0.001   0.035   0.085   0.119   0.128
  0.147   0.190   0.204
 -- Virtual --
  0.322   0.385   0.427   0.446   0.451   0.465   0.479   0.500
  0.531   0.559   0.606   0.638   0.668   0.728   0.734   0.783
  0.882   0.886   0.896   0.919   0.934   0.964   0.984   0.989
  1.018   1.031   1.045   1.074   1.089   1.126   1.141   1.151
  1.175   1.188   1.202   1.218   1.220   1.258   1.261   1.283
  1.314   1.334   1.349   1.403   1.418   1.431   1.445   1.483
  1.504   1.518   1.534   1.622   1.656   1.704   1.760   1.830
  1.865   1.873   1.932   1.965   2.022   2.050   2.073   2.100
  2.111   2.144   2.176   2.186   2.224   2.242   2.251   2.271
  2.290   2.339   2.346   2.371   2.396   2.418   2.448   2.459
  2.494   2.528   2.545   2.586   2.616   2.660   2.688   2.706
  2.724   2.818   2.863   2.938   2.990   3.017   3.063   3.128
  3.204   3.267   3.290   3.334   3.361   3.422   3.503   4.156
  4.316   4.429   4.581   4.602   4.703   4.729   4.893   5.090
 --------------------------------------------------------------
 
          Ground-State Mulliken Net Atomic Charges

     Atom                 Charge (a.u.)
  ----------------------------------------
      1 C                     0.353539
      2 C                     0.415167
      3 C                    -0.480610
      4 C                     0.488332
      5 C                    -0.482446
      6 O                    -0.820200
      7 O                    -0.573067
      8 O                    -0.690211
      9 O                    -0.698298
     10 H                     0.148669
     11 H                     0.102359
     12 H                     0.051030
     13 H                     0.057725
     14 H                     0.104988
     15 H                     0.023024
  ----------------------------------------
  Sum of atomic charges =    -2.000000

 -----------------------------------------------------------------
                    Cartesian Multipole Moments
 -----------------------------------------------------------------
    Charge (ESU x 10^10)
                -9.6064
    Dipole Moment (Debye)
         X      -4.1262      Y       1.9890      Z       4.1831
       Tot       6.2032
    Quadrupole Moments (Debye-Ang)
        XX     -87.2274     XY      -4.5310     YY     -73.5302
        XZ      -2.5135     YZ      -1.8502     ZZ     -67.6779
    Octopole Moments (Debye-Ang^2)
       XXX      -7.8297    XXY      -6.6957    XYY      -5.7216
       YYY       6.1736    XXZ      -2.5522    XYZ       6.2374
       YYZ       7.6274    XZZ       0.4092    YZZ       8.1476
       ZZZ      -8.8742
    Hexadecapole Moments (Debye-Ang^3)
      XXXX    -862.6372   XXXY      -3.4119   XXYY    -202.8782
      XYYY      -0.1741   YYYY    -501.0584   XXXZ     -30.3114
      XXYZ       0.3528   XYYZ      17.5142   YYYZ      -1.9973
      XXZZ    -176.5342   XYZZ       0.0498   YYZZ    -151.2818
      XZZZ      12.3475   YZZZ       3.6450   ZZZZ    -315.7716
 -----------------------------------------------------------------

 Begin NBO analysis for the ground state 


 *********************************** NBO 5.0 ***********************************
             N A T U R A L   A T O M I C   O R B I T A L   A N D
          N A T U R A L   B O N D   O R B I T A L   A N A L Y S I S
 *******************************************************************************
  (c) Copyright 1996-2002 Board of Regents of the University of Wisconsin System
      on behalf of the Theoretical Chemistry Institute.  All Rights Reserved.

          Cite this program as:

          NBO 5.0.  E. D. Glendening, J. K. Badenhoop, A. E. Reed,
          J. E. Carpenter, J. A. Bohmann, C. M. Morales, and F. Weinhold
          (Theoretical Chemistry Institute, University of Wisconsin,
          Madison, WI, 2001); http://www.chem.wisc.edu/~nbo5

       /NBOSUM / : Print summary of the NBO analysis
  This is a closed-shell NBO calculation

 Job title: Starting NBO analysis.                                          

 Storage needed:      108717 in NPA,       87117 in NBO (     7729864 available)


 NATURAL POPULATIONS:  Natural atomic orbital occupancies 
                                                          
  NAO Atom No lang   Type(AO)    Occupancy      Energy    
 ---------------------------------------------------------
   1    C  1  s      Cor( 1s)     1.99902      -9.73724
   2    C  1  s      Val( 2s)     0.91533       0.18329
   3    C  1  s      Ryd( 3s)     0.00658       1.84163
   4    C  1  s      Ryd( 4s)     0.00012       4.94093
   5    C  1  px     Val( 2p)     1.04642       0.29444
   6    C  1  px     Ryd( 3p)     0.00621       1.22601
   7    C  1  py     Val( 2p)     0.95430       0.32017
   8    C  1  py     Ryd( 3p)     0.01133       1.26277
   9    C  1  pz     Val( 2p)     0.87682       0.32644
  10    C  1  pz     Ryd( 3p)     0.01239       1.25609
  11    C  1  dxy    Ryd( 3d)     0.00232       2.67258
  12    C  1  dxz    Ryd( 3d)     0.00143       2.42063
  13    C  1  dyz    Ryd( 3d)     0.00108       2.75165
  14    C  1  dx2y2  Ryd( 3d)     0.00108       2.54463
  15    C  1  dz2    Ryd( 3d)     0.00267       2.65492
 
  16    C  2  s      Cor( 1s)     1.99930      -9.80367
  17    C  2  s      Val( 2s)     0.91638       0.13939
  18    C  2  s      Ryd( 3s)     0.01063       1.41179
  19    C  2  s      Ryd( 4s)     0.00028       4.56778
  20    C  2  px     Val( 2p)     0.87712       0.33362
  21    C  2  px     Ryd( 3p)     0.01638       1.11292
  22    C  2  py     Val( 2p)     0.84646       0.28058
  23    C  2  py     Ryd( 3p)     0.00626       1.15279
  24    C  2  pz     Val( 2p)     0.73421       0.26900
  25    C  2  pz     Ryd( 3p)     0.00720       1.07863
  26    C  2  dxy    Ryd( 3d)     0.00191       2.63496
  27    C  2  dxz    Ryd( 3d)     0.00154       2.56527
  28    C  2  dyz    Ryd( 3d)     0.00107       2.53780
  29    C  2  dx2y2  Ryd( 3d)     0.00191       2.63590
  30    C  2  dz2    Ryd( 3d)     0.00105       2.43707
 
  31    C  3  s      Cor( 1s)     1.99936      -9.75662
  32    C  3  s      Val( 2s)     1.13357       0.02385
  33    C  3  s      Ryd( 3s)     0.00046       1.62627
  34    C  3  s      Ryd( 4s)     0.00001       4.47364
  35    C  3  px     Val( 2p)     1.22591       0.21107
  36    C  3  px     Ryd( 3p)     0.00306       0.99272
  37    C  3  py     Val( 2p)     1.19289       0.19888
  38    C  3  py     Ryd( 3p)     0.00127       0.88906
  39    C  3  pz     Val( 2p)     1.19634       0.20360
  40    C  3  pz     Ryd( 3p)     0.00129       0.94518
  41    C  3  dxy    Ryd( 3d)     0.00034       2.20235
  42    C  3  dxz    Ryd( 3d)     0.00154       2.48296
  43    C  3  dyz    Ryd( 3d)     0.00105       2.49702
  44    C  3  dx2y2  Ryd( 3d)     0.00118       2.45837
  45    C  3  dz2    Ryd( 3d)     0.00016       2.10930
 
  46    C  4  s      Cor( 1s)     1.99949      -9.77714
  47    C  4  s      Val( 2s)     0.79220       0.24650
  48    C  4  s      Ryd( 3s)     0.00822       1.49214
  49    C  4  s      Ryd( 4s)     0.00049       4.22473
  50    C  4  px     Val( 2p)     0.84258       0.38144
  51    C  4  px     Ryd( 3p)     0.01576       1.12301
  52    C  4  py     Val( 2p)     0.78288       0.38180
  53    C  4  py     Ryd( 3p)     0.01672       1.12867
  54    C  4  pz     Val( 2p)     0.75819       0.34682
  55    C  4  pz     Ryd( 3p)     0.01305       1.09047
  56    C  4  dxy    Ryd( 3d)     0.00309       2.76205
  57    C  4  dxz    Ryd( 3d)     0.00170       2.68677
  58    C  4  dyz    Ryd( 3d)     0.00154       2.75920
  59    C  4  dx2y2  Ryd( 3d)     0.00245       2.69468
  60    C  4  dz2    Ryd( 3d)     0.00253       2.59059
 
  61    C  5  s      Cor( 1s)     1.99937      -9.71669
  62    C  5  s      Val( 2s)     1.13923       0.06576
  63    C  5  s      Ryd( 3s)     0.00139       1.61029
  64    C  5  s      Ryd( 4s)     0.00001       4.57016
  65    C  5  px     Val( 2p)     1.22791       0.25239
  66    C  5  px     Ryd( 3p)     0.00099       1.04292
  67    C  5  py     Val( 2p)     1.18957       0.24652
  68    C  5  py     Ryd( 3p)     0.00526       1.00652
  69    C  5  pz     Val( 2p)     1.13920       0.24998
  70    C  5  pz     Ryd( 3p)     0.00153       0.93211
  71    C  5  dxy    Ryd( 3d)     0.00132       2.44428
  72    C  5  dxz    Ryd( 3d)     0.00070       2.30664
  73    C  5  dyz    Ryd( 3d)     0.00100       2.46344
  74    C  5  dx2y2  Ryd( 3d)     0.00049       2.31910
  75    C  5  dz2    Ryd( 3d)     0.00085       2.44827
 
  76    O  6  s      Cor( 1s)     1.99985     -18.41130
  77    O  6  s      Val( 2s)     1.72494      -0.43245
  78    O  6  s      Ryd( 3s)     0.00081       2.17267
  79    O  6  s      Ryd( 4s)     0.00002       3.90260
  80    O  6  px     Val( 2p)     1.84113       0.20273
  81    O  6  px     Ryd( 3p)     0.00226       1.52769
  82    O  6  py     Val( 2p)     1.67890       0.18798
  83    O  6  py     Ryd( 3p)     0.00110       1.59713
  84    O  6  pz     Val( 2p)     1.66013       0.18625
  85    O  6  pz     Ryd( 3p)     0.00085       1.60706
  86    O  6  dxy    Ryd( 3d)     0.00080       2.40953
  87    O  6  dxz    Ryd( 3d)     0.00115       2.45395
  88    O  6  dyz    Ryd( 3d)     0.00210       2.82822
  89    O  6  dx2y2  Ryd( 3d)     0.00091       2.49519
  90    O  6  dz2    Ryd( 3d)     0.00175       2.53700
 
  91    O  7  s      Cor( 1s)     1.99978     -18.53347
  92    O  7  s      Val( 2s)     1.69512      -0.56189
  93    O  7  s      Ryd( 3s)     0.00073       2.26069
  94    O  7  s      Ryd( 4s)     0.00005       3.83067
  95    O  7  px     Val( 2p)     1.67226       0.03071
  96    O  7  px     Ryd( 3p)     0.00104       1.56083
  97    O  7  py     Val( 2p)     1.72003       0.07449
  98    O  7  py     Ryd( 3p)     0.00249       1.43686
  99    O  7  pz     Val( 2p)     1.55918       0.07070
 100    O  7  pz     Ryd( 3p)     0.00097       1.42889
 101    O  7  dxy    Ryd( 3d)     0.00241       2.43695
 102    O  7  dxz    Ryd( 3d)     0.00304       2.55626
 103    O  7  dyz    Ryd( 3d)     0.00099       2.26903
 104    O  7  dx2y2  Ryd( 3d)     0.00249       2.54280
 105    O  7  dz2    Ryd( 3d)     0.00180       2.29216
 
 106    O  8  s      Cor( 1s)     1.99980     -18.46622
 107    O  8  s      Val( 2s)     1.72267      -0.48370
 108    O  8  s      Ryd( 3s)     0.00052       2.34803
 109    O  8  s      Ryd( 4s)     0.00010       3.81669
 110    O  8  px     Val( 2p)     1.66245       0.12031
 111    O  8  px     Ryd( 3p)     0.00070       1.68569
 112    O  8  py     Val( 2p)     1.78668       0.15031
 113    O  8  py     Ryd( 3p)     0.00104       1.54369
 114    O  8  pz     Val( 2p)     1.63437       0.14147
 115    O  8  pz     Ryd( 3p)     0.00084       1.53951
 116    O  8  dxy    Ryd( 3d)     0.00212       2.48176
 117    O  8  dxz    Ryd( 3d)     0.00279       2.68485
 118    O  8  dyz    Ryd( 3d)     0.00072       2.37051
 119    O  8  dx2y2  Ryd( 3d)     0.00203       2.54267
 120    O  8  dz2    Ryd( 3d)     0.00152       2.36318
 
 121    O  9  s      Cor( 1s)     1.99980     -18.46511
 122    O  9  s      Val( 2s)     1.72550      -0.48268
 123    O  9  s      Ryd( 3s)     0.00049       2.34189
 124    O  9  s      Ryd( 4s)     0.00009       3.79333
 125    O  9  px     Val( 2p)     1.85597       0.15185
 126    O  9  px     Ryd( 3p)     0.00146       1.55829
 127    O  9  py     Val( 2p)     1.61487       0.12376
 128    O  9  py     Ryd( 3p)     0.00048       1.68130
 129    O  9  pz     Val( 2p)     1.62129       0.14161
 130    O  9  pz     Ryd( 3p)     0.00068       1.53529
 131    O  9  dxy    Ryd( 3d)     0.00166       2.44283
 132    O  9  dxz    Ryd( 3d)     0.00081       2.34827
 133    O  9  dyz    Ryd( 3d)     0.00283       2.74271
 134    O  9  dx2y2  Ryd( 3d)     0.00204       2.55068
 135    O  9  dz2    Ryd( 3d)     0.00177       2.36417
 
 136    H 10  s      Val( 1s)     0.76099       0.38240
 137    H 10  s      Ryd( 2s)     0.00157       1.02003
 
 138    H 11  s      Val( 1s)     0.77830       0.35020
 139    H 11  s      Ryd( 2s)     0.00254       0.93462
 
 140    H 12  s      Val( 1s)     0.81591       0.32118
 141    H 12  s      Ryd( 2s)     0.00437       0.93837
 
 142    H 13  s      Val( 1s)     0.80819       0.38033
 143    H 13  s      Ryd( 2s)     0.00653       0.97971
 
 144    H 14  s      Val( 1s)     0.77631       0.41226
 145    H 14  s      Ryd( 2s)     0.00524       1.00059
 
 146    H 15  s      Val( 1s)     0.84150       0.35144
 147    H 15  s      Ryd( 2s)     0.00444       1.02277


 Summary of Natural Population Analysis:

                                     Natural Population
             Natural    ---------------------------------------------
  Atom No    Charge        Core      Valence    Rydberg      Total
 --------------------------------------------------------------------
    C  1    0.16292      1.99902     3.79286    0.04520     5.83708
    C  2    0.57831      1.99930     3.37416    0.04823     5.42169
    C  3   -0.75844      1.99936     4.74871    0.01037     6.75844
    C  4    0.75910      1.99949     3.17585    0.06556     5.24090
    C  5   -0.70882      1.99937     4.69590    0.01354     6.70882
    O  6   -0.91670      1.99985     6.90511    0.01174     8.91670
    O  7   -0.66239      1.99978     6.64660    0.01601     8.66239
    O  8   -0.81834      1.99980     6.80618    0.01237     8.81834
    O  9   -0.82974      1.99980     6.81763    0.01231     8.82974
    H 10    0.23744      0.00000     0.76099    0.00157     0.76256
    H 11    0.21916      0.00000     0.77830    0.00254     0.78084
    H 12    0.17972      0.00000     0.81591    0.00437     0.82028
    H 13    0.18528      0.00000     0.80819    0.00653     0.81472
    H 14    0.21845      0.00000     0.77631    0.00524     0.78155
    H 15    0.15406      0.00000     0.84150    0.00444     0.84594
 ====================================================================
 * Total * -2.00000     17.99577    51.74420    0.26003    70.00000

                                 Natural Population      
 --------------------------------------------------------
   Core                      17.99577 ( 99.9765% of  18)
   Valence                   51.74420 ( 99.5081% of  52)
   Natural Minimal Basis     69.73997 ( 99.6285% of  70)
   Natural Rydberg Basis      0.26003 (  0.3715% of  70)
 --------------------------------------------------------

    Atom No         Natural Electron Configuration
 ----------------------------------------------------------------------------
      C  1      [core]2s( 0.92)2p( 2.88)3s( 0.01)3p( 0.03)3d( 0.01)
      C  2      [core]2s( 0.92)2p( 2.46)3s( 0.01)3p( 0.03)3d( 0.01)
      C  3      [core]2s( 1.13)2p( 3.62)3p( 0.01)
      C  4      [core]2s( 0.79)2p( 2.38)3s( 0.01)3p( 0.05)3d( 0.01)
      C  5      [core]2s( 1.14)2p( 3.56)3p( 0.01)
      O  6      [core]2s( 1.72)2p( 5.18)3d( 0.01)
      O  7      [core]2s( 1.70)2p( 4.95)3d( 0.01)
      O  8      [core]2s( 1.72)2p( 5.08)3d( 0.01)
      O  9      [core]2s( 1.73)2p( 5.09)3d( 0.01)
      H 10            1s( 0.76)
      H 11            1s( 0.78)
      H 12            1s( 0.82)
      H 13            1s( 0.81)2s( 0.01)
      H 14            1s( 0.78)2s( 0.01)
      H 15            1s( 0.84)


 NATURAL BOND ORBITAL ANALYSIS:

                       Occupancies       Lewis Structure    Low   High
           Occ.    -------------------  -----------------   occ   occ
  Cycle   Thresh.   Lewis   Non-Lewis     CR  BD  3C  LP    (L)   (NL)   Dev
 =============================================================================
   1(1)    1.90    67.20509   2.79491      9  20   0   6     8      6    0.44
   2(2)    1.90    66.97712   3.02288      9  21   0   5     8      7    0.21
   3(3)    1.90    65.22744   4.77256      9  22   0   4    10      8    0.46
   4(4)    1.90    67.20509   2.79491      9  20   0   6     8      6    0.44
   5(5)    1.90    66.97712   3.02288      9  21   0   5     8      7    0.21
   6(6)    1.90    65.22744   4.77256      9  22   0   4    10      8    0.46
   7(7)    1.90    67.20509   2.79491      9  20   0   6     8      6    0.44
   8(8)    1.90    66.97712   3.02288      9  21   0   5     8      7    0.21
   9(9)    1.90    65.22744   4.77256      9  22   0   4    10      8    0.46
  10(1)    1.80    68.60195   1.39805      9  16   0  10     1      4    0.44
  11(2)    1.80    68.59929   1.40071      9  16   0  10     1      4    0.46
  12(3)    1.80    68.60195   1.39805      9  16   0  10     1      4    0.44
  13(1)    1.70    68.60195   1.39805      9  16   0  10     1      4    0.44
  14(2)    1.70    68.59929   1.40071      9  16   0  10     1      4    0.46
  15(3)    1.70    68.60195   1.39805      9  16   0  10     1      4    0.44
  16(1)    1.60    68.25454   1.74546      9  15   0  11     0      4    0.46
  17(2)    1.60    68.25454   1.74546      9  15   0  11     0      4    0.46
  18(1)    1.50    68.25454   1.74546      9  15   0  11     0      4    0.46
  19(2)    1.50    68.25454   1.74546      9  15   0  11     0      4    0.46
  20(1)    1.80    68.60195   1.39805      9  16   0  10     1      4    0.44
 -----------------------------------------------------------------------------

 Strongly delocalized structure accepted

 --------------------------------------------------------
   Core                     17.99576 ( 99.976% of  18)
   Valence Lewis            50.60619 ( 97.320% of  52)
  ==================       ============================
   Total Lewis              68.60195 ( 98.003% of  70)
  -----------------------------------------------------
   Valence non-Lewis         1.21650 (  1.738% of  70)
   Rydberg non-Lewis         0.18154 (  0.259% of  70)
  ==================       ============================
   Total non-Lewis           1.39805 (  1.997% of  70)
 --------------------------------------------------------


     (Occupancy)   Bond orbital/ Coefficients/ Hybrids
 -------------------------------------------------------------------------------
   1. (1.97911) BD ( 1) C  1- C  2       
               ( 47.06%)   0.6860* C  1 s( 23.92%)p 3.18( 76.00%)d 0.00(  0.09%)
                                         0.0000 -0.4890  0.0078  0.0005  0.7387
                                        -0.0036 -0.4575  0.0067  0.0662  0.0240
                                         0.0226  0.0052  0.0001 -0.0103  0.0152
               ( 52.94%)   0.7276* C  2 s( 39.07%)p 1.56( 60.89%)d 0.00(  0.04%)
                                        -0.0001 -0.6243  0.0308 -0.0011 -0.6598
                                         0.0258  0.4037  0.0000  0.0974  0.0200
                                         0.0144  0.0017  0.0025 -0.0081  0.0102
   2. (1.96498) BD ( 1) C  1- C  4       
               ( 53.28%)   0.7299* C  1 s( 26.00%)p 2.84( 73.93%)d 0.00(  0.07%)
                                        -0.0002  0.5093 -0.0240  0.0006  0.6707
                                        -0.0053  0.5370 -0.0233 -0.0021 -0.0235
                                         0.0218  0.0048  0.0021 -0.0016 -0.0133
               ( 46.72%)   0.6835* C  4 s( 34.57%)p 1.89( 65.36%)d 0.00(  0.07%)
                                         0.0004  0.5861 -0.0468  0.0037 -0.6370
                                         0.0158 -0.4952 -0.0077  0.0454 -0.0130
                                         0.0216 -0.0059  0.0034  0.0060 -0.0111
   3. (1.94433) BD ( 1) C  1- C  5       
               ( 45.36%)   0.6735* C  1 s( 22.20%)p 3.50( 77.73%)d 0.00(  0.07%)
                                        -0.0002  0.4711 -0.0003 -0.0013 -0.0184
                                         0.0120 -0.4214 -0.0220  0.7738 -0.0065
                                         0.0035 -0.0082 -0.0136  0.0019  0.0219
               ( 54.64%)   0.7392* C  5 s( 28.41%)p 2.52( 71.55%)d 0.00(  0.03%)
                                         0.0009  0.5330 -0.0089 -0.0011  0.0425
                                         0.0077  0.4346 -0.0246 -0.7238  0.0143
                                         0.0003 -0.0006 -0.0146 -0.0032  0.0110
   4. (1.98775) BD ( 1) C  1- O  6       
               ( 37.44%)   0.6119* C  1 s( 27.70%)p 2.61( 72.19%)d 0.00(  0.11%)
                                        -0.0003  0.5237  0.0527 -0.0015  0.0530
                                         0.0078 -0.5667 -0.0389 -0.6276 -0.0495
                                        -0.0017 -0.0015  0.0277 -0.0136  0.0098
               ( 62.56%)   0.7909* O  6 s( 34.95%)p 1.86( 64.85%)d 0.01(  0.20%)
                                         0.0001  0.5908  0.0202 -0.0002 -0.0486
                                        -0.0003  0.5518  0.0077  0.5844  0.0079
                                        -0.0041 -0.0044  0.0381 -0.0176  0.0141
   5. (1.99185) BD ( 1) C  2- C  3       
               ( 45.36%)   0.6735* C  2 s( 31.16%)p 2.21( 68.77%)d 0.00(  0.07%)
                                        -0.0001  0.5581  0.0098 -0.0053 -0.0461
                                        -0.0106  0.6700  0.0090  0.4862 -0.0027
                                        -0.0022 -0.0031  0.0209 -0.0165  0.0039
               ( 54.64%)   0.7392* C  3 s( 28.16%)p 2.55( 71.79%)d 0.00(  0.05%)
                                         0.0003  0.5307 -0.0023 -0.0012  0.0314
                                        -0.0082 -0.6886  0.0114 -0.4925  0.0013
                                         0.0008 -0.0005  0.0181 -0.0143  0.0016
   6. (1.99701) BD ( 1) C  2- O  7       
               ( 32.81%)   0.5728* C  2 s( 29.81%)p 2.35( 70.02%)d 0.01(  0.17%)
                                         0.0001 -0.5419 -0.0670 -0.0008  0.7071
                                         0.0591  0.2257  0.0256  0.3793  0.0357
                                        -0.0170 -0.0262 -0.0037 -0.0258  0.0091
               ( 67.19%)   0.8197* O  7 s( 44.63%)p 1.23( 55.09%)d 0.01(  0.28%)
                                         0.0000 -0.6680 -0.0127 -0.0001 -0.6412
                                         0.0088 -0.2102  0.0048 -0.3090  0.0044
                                        -0.0238 -0.0342 -0.0091 -0.0293  0.0102
   7. (1.99149) BD ( 2) C  2- O  7       
               ( 29.44%)   0.5426* C  2 s(  0.01%)p99.99( 99.72%)d21.96(  0.27%)
                                         0.0000 -0.0035 -0.0105  0.0009 -0.2365
                                         0.0055 -0.5781  0.0251  0.7782 -0.0274
                                         0.0291 -0.0333  0.0030  0.0055 -0.0265
               ( 70.56%)   0.8400* O  7 s(  0.01%)p99.99( 99.75%)d17.24(  0.23%)
                                         0.0000  0.0116  0.0009 -0.0003 -0.2069
                                         0.0011 -0.5711  0.0061  0.7927 -0.0088
                                        -0.0254  0.0268 -0.0003  0.0007  0.0309
   8. (1.98965) BD ( 1) C  3- H 10       
               ( 62.09%)   0.7880* C  3 s( 25.69%)p 2.89( 74.23%)d 0.00(  0.08%)
                                        -0.0001  0.5068  0.0023  0.0002  0.7428
                                         0.0009  0.1252  0.0077  0.4182 -0.0008
                                         0.0067  0.0212  0.0038  0.0170 -0.0040
               ( 37.91%)   0.6157* H 10 s(100.00%)
                                         1.0000  0.0026
   9. (1.98063) BD ( 1) C  3- H 11       
               ( 60.91%)   0.7805* C  3 s( 23.24%)p 3.30( 76.68%)d 0.00(  0.08%)
                                         0.0000  0.4821  0.0022  0.0004 -0.1761
                                         0.0078  0.7087  0.0068 -0.4831  0.0008
                                        -0.0094  0.0060 -0.0220 -0.0147  0.0002
               ( 39.09%)   0.6252* H 11 s(100.00%)
                                         1.0000  0.0010
  10. (1.98502) BD ( 1) C  3- H 12       
               ( 59.33%)   0.7702* C  3 s( 22.89%)p 3.37( 77.02%)d 0.00(  0.09%)
                                         0.0001 -0.4784 -0.0005 -0.0005  0.6442
                                         0.0022  0.0829 -0.0040 -0.5901 -0.0099
                                        -0.0041  0.0259  0.0036 -0.0134 -0.0038
               ( 40.67%)   0.6377* H 12 s(100.00%)
                                        -1.0000 -0.0047
  11. (1.99636) BD ( 1) C  4- O  8       
               ( 32.90%)   0.5736* C  4 s( 29.03%)p 2.44( 70.79%)d 0.01(  0.18%)
                                        -0.0001  0.5377  0.0333 -0.0046  0.5902
                                         0.0665 -0.0709 -0.0092  0.5911  0.0240
                                        -0.0107  0.0339 -0.0015  0.0218  0.0095
               ( 67.10%)   0.8191* O  8 s( 38.27%)p 1.61( 61.49%)d 0.01(  0.24%)
                                         0.0000  0.6185  0.0101  0.0024 -0.6925
                                        -0.0090  0.3090  0.0047 -0.1993 -0.0060
                                        -0.0241  0.0299 -0.0100  0.0273 -0.0107
  12. (1.98653) BD ( 2) C  4- O  8       
               ( 24.42%)   0.4941* C  4 s(  3.93%)p24.36( 95.75%)d 0.08(  0.32%)
                                         0.0001 -0.1965 -0.0260  0.0047 -0.4816
                                        -0.0027  0.4570 -0.0283  0.7169 -0.0441
                                         0.0326  0.0173  0.0073 -0.0091  0.0414
               ( 75.58%)   0.8694* O  8 s(  2.12%)p46.03( 97.70%)d 0.09(  0.18%)
                                         0.0000 -0.1457 -0.0022 -0.0013 -0.1719
                                        -0.0005  0.4602  0.0022  0.8577  0.0058
                                        -0.0164 -0.0287  0.0000 -0.0001 -0.0267
  13. (1.99152) BD ( 1) C  4- O  9       
               ( 32.68%)   0.5717* C  4 s( 32.51%)p 2.07( 67.29%)d 0.01(  0.20%)
                                         0.0002 -0.5692 -0.0329  0.0056  0.0731
                                        -0.0132 -0.7315 -0.0593  0.3567  0.0387
                                         0.0164  0.0026  0.0248  0.0313  0.0126
               ( 67.32%)   0.8205* O  9 s( 37.01%)p 1.70( 62.75%)d 0.01(  0.24%)
                                         0.0000 -0.6083  0.0096 -0.0024 -0.0018
                                        -0.0026  0.4836  0.0088 -0.6273 -0.0075
                                         0.0053 -0.0025  0.0413  0.0243 -0.0082
  14. (1.99165) BD ( 1) C  5- H 13       
               ( 59.85%)   0.7736* C  5 s( 23.54%)p 3.24( 76.37%)d 0.00(  0.09%)
                                         0.0000  0.4851  0.0027  0.0002 -0.5207
                                        -0.0008 -0.6958 -0.0121 -0.0910  0.0011
                                         0.0250  0.0022  0.0035 -0.0060 -0.0147
               ( 40.15%)   0.6337* H 13 s(100.00%)
                                         1.0000  0.0061
  15. (1.98595) BD ( 1) C  5- H 14       
               ( 61.49%)   0.7842* C  5 s( 24.31%)p 3.11( 75.60%)d 0.00(  0.08%)
                                        -0.0002  0.4930  0.0077  0.0002  0.7875
                                         0.0055 -0.2777  0.0019  0.2423  0.0018
                                        -0.0146  0.0142 -0.0043  0.0176 -0.0098
               ( 38.51%)   0.6205* H 14 s(100.00%)
                                         1.0000  0.0075
  16. (1.99144) BD ( 1) C  5- H 15       
               ( 58.32%)   0.7637* C  5 s( 23.69%)p 3.22( 76.22%)d 0.00(  0.10%)
                                         0.0000  0.4866  0.0063  0.0002 -0.3250
                                         0.0004  0.4985  0.0022  0.6385  0.0176
                                        -0.0107 -0.0152  0.0221 -0.0033  0.0112
               ( 41.68%)   0.6456* H 15 s(100.00%)
                                         1.0000  0.0063
  17. (1.99902) CR ( 1) C  1             s(100.00%)p 0.00(  0.00%)
                                         1.0000  0.0004  0.0000  0.0000  0.0001
                                         0.0000 -0.0001  0.0000  0.0000  0.0000
                                         0.0000  0.0000  0.0000  0.0000  0.0000
  18. (1.99930) CR ( 1) C  2             s(100.00%)p 0.00(  0.00%)
                                         1.0000  0.0001  0.0000  0.0000 -0.0001
                                         0.0000  0.0001  0.0000  0.0001  0.0000
                                         0.0000  0.0000  0.0000  0.0000  0.0000
  19. (1.99936) CR ( 1) C  3             s(100.00%)p 0.00(  0.00%)
                                         1.0000  0.0000  0.0000  0.0000  0.0000
                                         0.0000  0.0002  0.0000  0.0002  0.0000
                                         0.0000  0.0000  0.0000  0.0000  0.0000
  20. (1.99950) CR ( 1) C  4             s(100.00%)p 0.00(  0.00%)
                                         1.0000 -0.0001  0.0000  0.0000  0.0004
                                         0.0000  0.0003  0.0000 -0.0001  0.0000
                                         0.0000  0.0000  0.0000  0.0000  0.0000
  21. (1.99937) CR ( 1) C  5             s(100.00%)p 0.00(  0.00%)
                                         1.0000 -0.0004  0.0000  0.0000  0.0001
                                         0.0000 -0.0005  0.0000  0.0007  0.0000
                                         0.0000  0.0000  0.0000  0.0000  0.0000
  22. (1.99984) CR ( 1) O  6             s(100.00%)p 0.00(  0.00%)
                                         1.0000  0.0002  0.0000  0.0000  0.0000
                                         0.0000 -0.0002  0.0000 -0.0002  0.0000
                                         0.0000  0.0000  0.0000  0.0000  0.0000
  23. (1.99978) CR ( 1) O  7             s(100.00%)p 0.00(  0.00%)
                                         1.0000  0.0003  0.0000  0.0000 -0.0003
                                         0.0000 -0.0001  0.0000 -0.0001  0.0000
                                         0.0000  0.0000  0.0000  0.0000  0.0000
  24. (1.99980) CR ( 1) O  8             s(100.00%)p 0.00(  0.00%)
                                         1.0000  0.0003  0.0000  0.0000  0.0002
                                         0.0000 -0.0001  0.0000  0.0002  0.0000
                                         0.0000  0.0000  0.0000  0.0000  0.0000
  25. (1.99980) CR ( 1) O  9             s(100.00%)p 0.00(  0.00%)
                                         1.0000  0.0003  0.0000  0.0000 -0.0001
                                         0.0000  0.0002  0.0000 -0.0002  0.0000
                                         0.0000  0.0000  0.0000  0.0000  0.0000
  26. (1.97916) LP ( 1) O  6             s( 65.06%)p 0.54( 34.93%)d 0.00(  0.02%)
                                        -0.0003  0.8065 -0.0092  0.0001  0.0484
                                        -0.0003 -0.4019  0.0006 -0.4306 -0.0011
                                         0.0015  0.0014 -0.0107  0.0045 -0.0040
  27. (1.84541) LP ( 2) O  6             s(  0.01%)p99.99( 99.89%)d 8.67(  0.10%)
                                         0.0000  0.0104 -0.0027 -0.0006 -0.8703
                                         0.0018 -0.3959  0.0028  0.2910 -0.0014
                                        -0.0162 -0.0221 -0.0035  0.0104  0.0114
  28. (1.83951) LP ( 3) O  6             s(  0.00%)p 1.00( 99.90%)d 0.00(  0.10%)
                                         0.0000  0.0026 -0.0005  0.0012 -0.4866
                                         0.0016  0.6129 -0.0025 -0.6218  0.0012
                                        -0.0115 -0.0106  0.0012 -0.0120 -0.0253
  29. (1.97768) LP ( 1) O  7             s( 55.30%)p 0.81( 44.65%)d 0.00(  0.04%)
                                        -0.0005  0.7436 -0.0075 -0.0002 -0.5825
                                        -0.0052 -0.1658  0.0022 -0.2823  0.0005
                                        -0.0073 -0.0135 -0.0067 -0.0110  0.0048
  30. (1.89415) LP ( 2) O  7             s(  0.02%)p99.99( 99.84%)d 7.03(  0.14%)
                                         0.0000  0.0139  0.0022  0.0014  0.4517
                                         0.0047 -0.7748 -0.0074 -0.4405 -0.0034
                                        -0.0177 -0.0051 -0.0195  0.0235 -0.0114
  31. (1.97709) LP ( 1) O  8             s( 59.57%)p 0.68( 40.41%)d 0.00(  0.03%)
                                        -0.0004  0.7718 -0.0049 -0.0018  0.5296
                                        -0.0022 -0.1504  0.0003  0.3177 -0.0014
                                         0.0058 -0.0121  0.0046 -0.0087  0.0027
  32. (1.87785) LP ( 2) O  8             s(  0.01%)p99.99( 99.87%)d10.99(  0.12%)
                                         0.0000  0.0101 -0.0026 -0.0001 -0.4564
                                         0.0041 -0.8177  0.0030  0.3490 -0.0011
                                         0.0199 -0.0021  0.0166  0.0203 -0.0107
  33. (1.97579) LP ( 1) O  9             s( 60.18%)p 0.66( 39.79%)d 0.00(  0.03%)
                                        -0.0004  0.7758  0.0047 -0.0017 -0.0214
                                         0.0007  0.5288 -0.0016 -0.3432  0.0005
                                         0.0010 -0.0018  0.0136  0.0092  0.0008
  34. (1.89148) LP ( 2) O  9             s(  0.17%)p99.99( 99.71%)d 0.72(  0.12%)
                                        -0.0001  0.0406  0.0028 -0.0002 -0.9423
                                         0.0049 -0.2430  0.0024 -0.2238 -0.0017
                                         0.0260 -0.0193  0.0008 -0.0096 -0.0079
  35. (1.59279) LP ( 3) O  9             s(  2.61%)p37.20( 97.21%)d 0.07(  0.18%)
                                         0.0000  0.1616 -0.0040  0.0014  0.3320
                                        -0.0012 -0.6520 -0.0030 -0.6608  0.0016
                                        -0.0139  0.0065  0.0049 -0.0236 -0.0306
  36. (0.01408) RY*( 1) C  1             s( 17.84%)p 4.56( 81.35%)d 0.05(  0.81%)
                                         0.0000 -0.0668  0.4151  0.0408 -0.0049
                                        -0.0357  0.0318 -0.6234  0.0346 -0.6492
                                         0.0099  0.0081 -0.0783  0.0387 -0.0181
  37. (0.00932) RY*( 2) C  1             s(  0.26%)p99.99( 87.27%)d47.90( 12.47%)
                                         0.0000 -0.0023  0.0508 -0.0040 -0.0079
                                         0.5864  0.0196 -0.5210 -0.0163  0.5067
                                         0.1604  0.1085 -0.0496  0.0683  0.2830
  38. (0.00593) RY*( 3) C  1             s(  0.31%)p99.99( 60.39%)d99.99( 39.30%)
                                         0.0000  0.0099  0.0522 -0.0178  0.0070
                                        -0.6203  0.0052 -0.2978 -0.0128  0.3609
                                        -0.2997 -0.3665 -0.1132  0.2412  0.3128
  39. (0.00252) RY*( 4) C  1             s( 38.35%)p 0.71( 27.24%)d 0.90( 34.42%)
                                         0.0000  0.0062  0.6169 -0.0535  0.0294
                                         0.3835  0.0297  0.3501  0.0140  0.0293
                                        -0.4898 -0.3089 -0.0251  0.0676  0.0608
  40. (0.00189) RY*( 5) C  1             s(  4.18%)p 3.69( 15.41%)d19.25( 80.41%)
                                         0.0000  0.0047  0.2021 -0.0297 -0.0082
                                        -0.0958  0.0206  0.3344 -0.0031 -0.1807
                                         0.4065  0.2126 -0.0128  0.2837  0.7162
  41. (0.00055) RY*( 6) C  1             s( 39.05%)p 0.57( 22.27%)d 0.99( 38.68%)
                                         0.0000  0.0175  0.6042 -0.1585 -0.0122
                                        -0.2929  0.0123  0.0388  0.0135  0.3673
                                         0.4447  0.1347 -0.0547 -0.2071 -0.3536
  42. (0.00038) RY*( 7) C  1             s(  0.84%)p 1.19(  1.01%)d99.99( 98.15%)
                                         0.0000  0.0049  0.0672 -0.0626  0.0103
                                        -0.0480 -0.0134 -0.0224  0.0085  0.0830
                                        -0.2395  0.5232  0.2673  0.7037 -0.2894
  43. (0.00029) RY*( 8) C  1             s(  2.62%)p 0.92(  2.42%)d36.23( 94.96%)
                                         0.0000 -0.0099  0.1182  0.1102 -0.0038
                                        -0.1099  0.0233 -0.0914  0.0295  0.0487
                                        -0.1628  0.1350  0.8337 -0.3936  0.2341
  44. (0.00021) RY*( 9) C  1             s(  0.67%)p 2.05(  1.37%)d99.99( 97.96%)
                                         0.0000 -0.0092 -0.0270  0.0767 -0.0062
                                         0.1105 -0.0033 -0.0056  0.0051 -0.0372
                                         0.4429 -0.6307  0.4388  0.3944 -0.1938
  45. (0.00007) RY*(10) C  1             s( 96.06%)p 0.01(  1.43%)d 0.03(  2.51%)
  46. (0.01875) RY*( 1) C  2             s( 13.76%)p 6.26( 86.20%)d 0.00(  0.04%)
                                         0.0000 -0.0666  0.3558  0.0814  0.0535
                                        -0.7961  0.0181 -0.2791  0.0357 -0.3819
                                         0.0055  0.0079 -0.0058 -0.0146  0.0062
  47. (0.00714) RY*( 2) C  2             s( 35.44%)p 1.39( 49.42%)d 0.43( 15.14%)
                                         0.0000 -0.0032  0.5905 -0.0753  0.0320
                                        -0.0996 -0.0206  0.6278 -0.0064  0.2977
                                         0.1888  0.0605  0.2135 -0.2317  0.1133
  48. (0.00385) RY*( 3) C  2             s( 10.39%)p 6.94( 72.15%)d 1.68( 17.45%)
                                         0.0000  0.0110  0.3186 -0.0483  0.0088
                                         0.0268 -0.0351 -0.5517  0.0481  0.6425
                                        -0.2435  0.2339 -0.1237  0.0023  0.2126
  49. (0.00322) RY*( 4) C  2             s( 37.71%)p 0.80( 30.06%)d 0.85( 32.22%)
                                         0.0000 -0.0054  0.6121 -0.0495  0.0360
                                         0.4311  0.0144 -0.0231  0.0079 -0.3357
                                        -0.1952 -0.0815 -0.2018  0.3950 -0.2842
  50. (0.00179) RY*( 5) C  2             s(  2.96%)p14.09( 41.76%)d18.64( 55.27%)
                                         0.0000  0.0030  0.1698 -0.0281  0.0223
                                         0.3831 -0.0114 -0.4056 -0.0032 -0.3251
                                         0.4449  0.1315  0.3480 -0.4241  0.1911
  51. (0.00077) RY*( 6) C  2             s(  0.30%)p54.21( 16.50%)d99.99( 83.19%)
                                         0.0000  0.0025  0.0422 -0.0355  0.0176
                                        -0.0792  0.0178 -0.2169 -0.0184  0.3328
                                         0.5496 -0.5463  0.1917  0.3366 -0.2851
  52. (0.00057) RY*( 7) C  2             s(  1.27%)p 0.65(  0.82%)d77.27( 97.91%)
                                         0.0000 -0.0080 -0.0580  0.0961  0.0233
                                        -0.0365  0.0152  0.0744  0.0225  0.0051
                                         0.5329  0.6718 -0.2568  0.4218  0.0052
  53. (0.00027) RY*( 8) C  2             s(  0.18%)p 7.51(  1.38%)d99.99( 98.44%)
                                         0.0000 -0.0062 -0.0184  0.0381  0.0014
                                         0.0194 -0.0069  0.0487  0.0086 -0.1044
                                        -0.1441 -0.0674  0.4760  0.5538  0.6525
  54. (0.00007) RY*( 9) C  2             s( 94.72%)p 0.01(  1.42%)d 0.04(  3.86%)
  55. (0.00003) RY*(10) C  2             s(  3.20%)p 0.28(  0.90%)d29.95( 95.90%)
  56. (0.00302) RY*( 1) C  3             s(  2.60%)p37.11( 96.53%)d 0.33(  0.87%)
                                         0.0000  0.0048  0.1609 -0.0097 -0.0021
                                         0.9534 -0.0128 -0.2103  0.0013 -0.1091
                                        -0.0776  0.0410  0.0083 -0.0003 -0.0298
  57. (0.00148) RY*( 2) C  3             s( 14.58%)p 5.39( 78.57%)d 0.47(  6.85%)
                                         0.0000  0.0079  0.3801 -0.0354 -0.0121
                                        -0.2216 -0.0005 -0.3180  0.0033 -0.7971
                                         0.1444  0.2066  0.0326 -0.0305  0.0549
  58. (0.00088) RY*( 3) C  3             s(  6.47%)p13.82( 89.37%)d 0.64(  4.16%)
                                         0.0000  0.0088  0.2541 -0.0004  0.0055
                                        -0.1516 -0.0005 -0.7974 -0.0091  0.4845
                                         0.1501 -0.0495 -0.0489  0.0702 -0.0964
  59. (0.00026) RY*( 4) C  3             s(  1.45%)p 5.30(  7.69%)d62.66( 90.86%)
                                         0.0000 -0.0052  0.1188  0.0188 -0.0190
                                         0.0441 -0.0087  0.2185  0.0098  0.1634
                                         0.4466  0.5982 -0.1867 -0.2967 -0.4780
  60. (0.00021) RY*( 5) C  3             s(  9.42%)p 0.96(  9.02%)d 8.66( 81.56%)
                                         0.0000 -0.0058  0.3008  0.0610 -0.0135
                                         0.0496  0.0075  0.2326 -0.0194  0.1817
                                         0.3480  0.2612  0.2930  0.6112  0.4085
  61. (0.00011) RY*( 6) C  3             s( 60.05%)p 0.19( 11.30%)d 0.48( 28.65%)
                                         0.0000 -0.0058  0.7597  0.1525  0.0130
                                        -0.0528 -0.0087  0.3186 -0.0006  0.0919
                                        -0.2396 -0.3296 -0.3180 -0.0107 -0.1386
  62. (0.00002) RY*( 7) C  3             s(  8.96%)p 0.17(  1.49%)d 9.99( 89.55%)
  63. (0.00002) RY*( 8) C  3             s(  0.44%)p 6.63(  2.90%)d99.99( 96.66%)
  64. (0.00002) RY*( 9) C  3             s(  2.51%)p 0.61(  1.52%)d38.20( 95.97%)
  65. (0.00000) RY*(10) C  3             s( 93.54%)p 0.02(  1.89%)d 0.05(  4.57%)
  66. (0.02513) RY*( 1) C  4             s(  0.06%)p99.99( 98.46%)d25.43(  1.48%)
                                         0.0000 -0.0059  0.0230 -0.0044 -0.0429
                                         0.5214  0.0520 -0.5886 -0.0457  0.5997
                                        -0.0253  0.0523  0.0461  0.0955 -0.0134
  67. (0.01639) RY*( 2) C  4             s( 24.04%)p 2.79( 66.96%)d 0.37(  9.00%)
                                         0.0000 -0.0569  0.4831  0.0617 -0.0628
                                         0.5630 -0.0383  0.5855  0.0161  0.0638
                                        -0.2450  0.1097 -0.0769 -0.0576  0.0933
  68. (0.00550) RY*( 3) C  4             s(  0.19%)p 1.84(  0.34%)d99.99( 99.47%)
                                         0.0000  0.0128  0.0158  0.0383  0.0151
                                         0.0168 -0.0076  0.0093 -0.0528 -0.0035
                                         0.5055  0.2322 -0.1285  0.1539  0.8031
  69. (0.00285) RY*( 4) C  4             s(  9.55%)p 9.45( 90.21%)d 0.03(  0.24%)
                                         0.0000  0.0236  0.2487 -0.1818 -0.0369
                                        -0.5584  0.0119  0.2598  0.0360  0.7211
                                        -0.0187  0.0232  0.0219  0.0238  0.0224
  70. (0.00282) RY*( 5) C  4             s( 16.07%)p 0.08(  1.25%)d 5.15( 82.68%)
                                         0.0000 -0.0001  0.3377  0.2160  0.0042
                                         0.0782  0.0098  0.0785  0.0034 -0.0114
                                         0.6484 -0.3354  0.4248  0.1642 -0.2940
  71. (0.00232) RY*( 6) C  4             s(  0.18%)p10.24(  1.80%)d99.99( 98.02%)
                                         0.0000  0.0011  0.0380  0.0177  0.0174
                                         0.0511 -0.0215 -0.0555  0.0219  0.1053
                                         0.2164 -0.4523 -0.3715 -0.7644  0.0809
  72. (0.00099) RY*( 7) C  4             s( 47.70%)p 0.54( 25.56%)d 0.56( 26.74%)
                                         0.0000  0.0057  0.6269 -0.2896 -0.0194
                                        -0.1549 -0.0301 -0.3930 -0.0145 -0.2750
                                        -0.0133  0.3763  0.1758 -0.3077 -0.0062
  73. (0.00023) RY*( 8) C  4             s( 18.14%)p 0.50(  9.09%)d 4.01( 72.77%)
                                         0.0000  0.0022  0.4202  0.0694 -0.0215
                                        -0.1304 -0.0048 -0.2338  0.0128 -0.1363
                                        -0.1457 -0.3924 -0.5670  0.4803  0.0168
  74. (0.00011) RY*( 9) C  4             s( 65.01%)p 0.09(  6.17%)d 0.44( 28.82%)
                                         0.0000  0.0230  0.1177  0.7974 -0.0014
                                        -0.2011 -0.0014 -0.1412 -0.0024  0.0358
                                        -0.3369 -0.0488  0.2822 -0.1495  0.2652
  75. (0.00002) RY*(10) C  4             s( 19.03%)p 0.05(  0.96%)d 4.20( 80.01%)
  76. (0.00479) RY*( 1) C  5             s( 17.49%)p 4.64( 81.23%)d 0.07(  1.28%)
                                         0.0000  0.0160  0.4177 -0.0128 -0.0064
                                        -0.0367  0.0021  0.8916 -0.0256 -0.1235
                                        -0.0614 -0.0069  0.0598 -0.0231  0.0698
  77. (0.00116) RY*( 2) C  5             s( 13.63%)p 5.69( 77.58%)d 0.64(  8.79%)
                                         0.0000  0.0077  0.3686 -0.0199  0.0024
                                        -0.5198  0.0071 -0.3073 -0.0027 -0.6411
                                         0.0336  0.0349  0.1701  0.0854  0.2221
  78. (0.00084) RY*( 3) C  5             s(  0.14%)p99.99( 82.78%)d99.99( 17.08%)
                                         0.0000  0.0018  0.0369  0.0017  0.0031
                                         0.7751 -0.0008 -0.0623  0.0025 -0.4723
                                         0.1764 -0.2812  0.1117  0.0775  0.2053
  79. (0.00035) RY*( 4) C  5             s(  4.65%)p 3.12( 14.53%)d17.37( 80.82%)
                                         0.0000 -0.0063  0.2120 -0.0390  0.0293
                                        -0.1787  0.0002 -0.0407 -0.0042  0.3329
                                         0.6225 -0.5752  0.2752 -0.1115 -0.0403
  80. (0.00025) RY*( 5) C  5             s(  6.21%)p 1.27(  7.89%)d13.83( 85.90%)
                                         0.0000  0.0038  0.2476  0.0275 -0.0025
                                         0.0611  0.0285 -0.0467  0.0130 -0.2684
                                         0.2682  0.0643 -0.4769 -0.1711 -0.7254
  81. (0.00016) RY*( 6) C  5             s( 55.34%)p 0.54( 30.02%)d 0.26( 14.64%)
                                         0.0000 -0.0166  0.7268  0.1578 -0.0104
                                         0.2579 -0.0027 -0.2783 -0.0050  0.3951
                                        -0.1475  0.2207  0.0216  0.2725  0.0338
  82. (0.00003) RY*( 7) C  5             s(  1.75%)p 0.75(  1.30%)d55.50( 96.95%)
  83. (0.00002) RY*( 8) C  5             s(  0.71%)p 1.83(  1.30%)d99.99( 97.99%)
  84. (0.00001) RY*( 9) C  5             s(  2.24%)p 1.21(  2.71%)d42.38( 95.05%)
  85. (0.00001) RY*(10) C  5             s( 97.89%)p 0.01(  0.92%)d 0.01(  1.19%)
  86. (0.00237) RY*( 1) O  6             s(  1.52%)p64.50( 97.84%)d 0.43(  0.65%)
                                         0.0000 -0.0005  0.1214  0.0205 -0.0012
                                        -0.9363 -0.0024 -0.2712 -0.0023  0.1679
                                        -0.0710 -0.0092 -0.0021 -0.0093  0.0352
  87. (0.00166) RY*( 2) O  6             s(  0.04%)p99.99( 98.47%)d37.37(  1.49%)
                                         0.0000  0.0014 -0.0037  0.0196 -0.0017
                                         0.3158 -0.0002 -0.6939 -0.0001  0.6352
                                         0.0302  0.0220 -0.0169  0.0478  0.1046
  88. (0.00014) RY*( 3) O  6             s( 63.14%)p 0.44( 27.59%)d 0.15(  9.27%)
                                         0.0000 -0.0106  0.7942 -0.0239  0.0053
                                         0.0824 -0.0218  0.3625 -0.0235  0.3697
                                        -0.1995 -0.0744  0.2003 -0.0465  0.0713
  89. (0.00005) RY*( 4) O  6             s(  9.86%)p 1.11( 10.97%)d 8.03( 79.18%)
  90. (0.00003) RY*( 5) O  6             s(  9.56%)p 0.03(  0.28%)d 9.44( 90.17%)
  91. (0.00003) RY*( 6) O  6             s(  3.38%)p 1.18(  4.01%)d27.36( 92.61%)
  92. (0.00002) RY*( 7) O  6             s( 31.15%)p 1.72( 53.67%)d 0.49( 15.17%)
  93. (0.00001) RY*( 8) O  6             s( 78.14%)p 0.07(  5.10%)d 0.21( 16.76%)
  94. (0.00001) RY*( 9) O  6             s(  3.02%)p 0.78(  2.36%)d31.31( 94.62%)
  95. (0.00001) RY*(10) O  6             s(  0.18%)p 0.84(  0.15%)d99.99( 99.67%)
  96. (0.00359) RY*( 1) O  7             s(  2.82%)p33.83( 95.28%)d 0.68(  1.90%)
                                         0.0000  0.0010  0.1672  0.0139 -0.0100
                                         0.4500  0.0013 -0.7768 -0.0011 -0.3830
                                         0.0493  0.0429  0.1125 -0.0439  0.0132
  97. (0.00054) RY*( 2) O  7             s( 18.35%)p 4.32( 79.30%)d 0.13(  2.35%)
                                         0.0000 -0.0027  0.4283  0.0018 -0.0026
                                         0.0378  0.0072  0.4849 -0.0168 -0.7457
                                        -0.0402  0.0827 -0.0015  0.0145  0.1219
  98. (0.00034) RY*( 3) O  7             s( 56.62%)p 0.67( 37.92%)d 0.10(  5.46%)
                                         0.0000 -0.0099  0.7472 -0.0887 -0.0205
                                        -0.5030 -0.0037 -0.2502 -0.0073  0.2512
                                        -0.0605  0.1267  0.0843  0.1551 -0.0607
  99. (0.00009) RY*( 4) O  7             s( 26.24%)p 0.63( 16.44%)d 2.18( 57.32%)
 100. (0.00007) RY*( 5) O  7             s( 47.95%)p 0.97( 46.31%)d 0.12(  5.74%)
 101. (0.00003) RY*( 6) O  7             s(  1.55%)p 1.54(  2.38%)d62.13( 96.07%)
 102. (0.00002) RY*( 7) O  7             s(  0.56%)p 4.85(  2.71%)d99.99( 96.74%)
 103. (0.00001) RY*( 8) O  7             s(  8.41%)p 0.33(  2.78%)d10.57( 88.82%)
 104. (0.00001) RY*( 9) O  7             s(  7.03%)p 0.64(  4.50%)d12.58( 88.47%)
 105. (0.00001) RY*(10) O  7             s( 30.51%)p 0.43( 13.05%)d 1.85( 56.44%)
 106. (0.00145) RY*( 1) O  8             s(  2.29%)p41.55( 95.07%)d 1.15(  2.64%)
                                         0.0000 -0.0027 -0.0807  0.1279  0.0055
                                         0.5600  0.0006  0.6241  0.0048 -0.4976
                                        -0.1100  0.1066 -0.0452 -0.0012  0.0299
 107. (0.00085) RY*( 2) O  8             s(  0.61%)p99.99( 96.21%)d 5.24(  3.18%)
                                         0.0000  0.0000  0.0770 -0.0123 -0.0039
                                         0.1993  0.0056 -0.6877  0.0075 -0.6704
                                         0.1032 -0.0297 -0.0622  0.0495  0.1182
 108. (0.00050) RY*( 3) O  8             s( 67.76%)p 0.39( 26.52%)d 0.08(  5.71%)
                                         0.0000 -0.0046  0.8114 -0.1387  0.0029
                                        -0.3631 -0.0097  0.2467  0.0044 -0.2692
                                        -0.0053 -0.0701 -0.1377 -0.1794 -0.0322
 109. (0.00009) RY*( 4) O  8             s( 25.60%)p 2.47( 63.16%)d 0.44( 11.24%)
 110. (0.00006) RY*( 5) O  8             s( 60.55%)p 0.03(  1.98%)d 0.62( 37.47%)
 111. (0.00002) RY*( 6) O  8             s(  0.02%)p99.99(  2.45%)d99.99( 97.53%)
 112. (0.00002) RY*( 7) O  8             s(  3.97%)p 0.94(  3.73%)d23.24( 92.30%)
 113. (0.00001) RY*( 8) O  8             s(  1.22%)p 1.04(  1.27%)d79.83( 97.50%)
 114. (0.00002) RY*( 9) O  8             s( 35.37%)p 0.23(  8.18%)d 1.60( 56.45%)
 115. (0.00001) RY*(10) O  8             s(  2.64%)p 0.75(  1.97%)d36.14( 95.39%)
 116. (0.00149) RY*( 1) O  9             s(  3.29%)p28.65( 94.23%)d 0.75(  2.48%)
                                         0.0000 -0.0027  0.1459  0.1077  0.0020
                                         0.9573  0.0038  0.1007 -0.0028 -0.1252
                                        -0.1064  0.0506 -0.0755 -0.0698  0.0186
 117. (0.00081) RY*( 2) O  9             s(  0.25%)p99.99( 96.01%)d14.76(  3.74%)
                                         0.0000 -0.0016 -0.0100  0.0493 -0.0005
                                         0.0388  0.0003  0.5247 -0.0068  0.8266
                                         0.0271  0.0892 -0.0224 -0.0477  0.1610
 118. (0.00044) RY*( 3) O  9             s( 65.05%)p 0.41( 26.73%)d 0.13(  8.22%)
                                         0.0000  0.0039  0.7960  0.1300  0.0094
                                        -0.2140 -0.0027  0.4011  0.0054 -0.2461
                                         0.0617 -0.1637 -0.0308 -0.2233  0.0276
 119. (0.00009) RY*( 4) O  9             s( 19.73%)p 3.40( 67.18%)d 0.66( 13.09%)
 120. (0.00005) RY*( 5) O  9             s( 74.26%)p 0.02(  1.37%)d 0.33( 24.37%)
 121. (0.00003) RY*( 6) O  9             s(  2.73%)p 0.85(  2.32%)d34.74( 94.94%)
 122. (0.00001) RY*( 7) O  9             s(  6.46%)p 0.27(  1.76%)d14.22( 91.79%)
 123. (0.00001) RY*( 8) O  9             s( 18.59%)p 0.34(  6.33%)d 4.04( 75.08%)
 124. (0.00002) RY*( 9) O  9             s(  9.25%)p 0.15(  1.39%)d 9.66( 89.36%)
 125. (0.00001) RY*(10) O  9             s(  0.41%)p 7.79(  3.22%)d99.99( 96.37%)
 126. (0.00158) RY*( 1) H 10             s(100.00%)
                                        -0.0026  1.0000
 127. (0.00254) RY*( 1) H 11             s(100.00%)
                                        -0.0010  1.0000
 128. (0.00439) RY*( 1) H 12             s(100.00%)
                                        -0.0047  1.0000
 129. (0.00656) RY*( 1) H 13             s(100.00%)
                                        -0.0061  1.0000
 130. (0.00528) RY*( 1) H 14             s(100.00%)
                                        -0.0075  1.0000
 131. (0.00448) RY*( 1) H 15             s(100.00%)
                                        -0.0063  1.0000
 132. (0.13143) BD*( 1) C  1- C  2       
               ( 52.94%)   0.7276* C  1 s( 23.92%)p 3.18( 76.00%)d 0.00(  0.09%)
                                         0.0000 -0.4890  0.0078  0.0005  0.7387
                                        -0.0036 -0.4575  0.0067  0.0662  0.0240
                                         0.0226  0.0052  0.0001 -0.0103  0.0152
               ( 47.06%)  -0.6860* C  2 s( 39.07%)p 1.56( 60.89%)d 0.00(  0.04%)
                                        -0.0001 -0.6243  0.0308 -0.0011 -0.6598
                                         0.0258  0.4037  0.0000  0.0974  0.0200
                                         0.0144  0.0017  0.0025 -0.0081  0.0102
 133. (0.14443) BD*( 1) C  1- C  4       
               ( 46.72%)   0.6835* C  1 s( 26.00%)p 2.84( 73.93%)d 0.00(  0.07%)
                                         0.0002 -0.5093  0.0240 -0.0006 -0.6707
                                         0.0053 -0.5370  0.0233  0.0021  0.0235
                                        -0.0218 -0.0048 -0.0021  0.0016  0.0133
               ( 53.28%)  -0.7299* C  4 s( 34.57%)p 1.89( 65.36%)d 0.00(  0.07%)
                                        -0.0004 -0.5861  0.0468 -0.0037  0.6370
                                        -0.0158  0.4952  0.0077 -0.0454  0.0130
                                        -0.0216  0.0059 -0.0034 -0.0060  0.0111
 134. (0.09667) BD*( 1) C  1- C  5       
               ( 54.64%)   0.7392* C  1 s( 22.20%)p 3.50( 77.73%)d 0.00(  0.07%)
                                        -0.0002  0.4711 -0.0003 -0.0013 -0.0184
                                         0.0120 -0.4214 -0.0220  0.7738 -0.0065
                                         0.0035 -0.0082 -0.0136  0.0019  0.0219
               ( 45.36%)  -0.6735* C  5 s( 28.41%)p 2.52( 71.55%)d 0.00(  0.03%)
                                         0.0009  0.5330 -0.0089 -0.0011  0.0425
                                         0.0077  0.4346 -0.0246 -0.7238  0.0143
                                         0.0003 -0.0006 -0.0146 -0.0032  0.0110
 135. (0.01331) BD*( 1) C  1- O  6       
               ( 62.56%)   0.7909* C  1 s( 27.70%)p 2.61( 72.19%)d 0.00(  0.11%)
                                        -0.0003  0.5237  0.0527 -0.0015  0.0530
                                         0.0078 -0.5667 -0.0389 -0.6276 -0.0495
                                        -0.0017 -0.0015  0.0277 -0.0136  0.0098
               ( 37.44%)  -0.6119* O  6 s( 34.95%)p 1.86( 64.85%)d 0.01(  0.20%)
                                         0.0001  0.5908  0.0202 -0.0002 -0.0486
                                        -0.0003  0.5518  0.0077  0.5844  0.0079
                                        -0.0041 -0.0044  0.0381 -0.0176  0.0141
 136. (0.07198) BD*( 1) C  2- C  3       
               ( 54.64%)   0.7392* C  2 s( 31.16%)p 2.21( 68.77%)d 0.00(  0.07%)
                                        -0.0001  0.5581  0.0098 -0.0053 -0.0461
                                        -0.0106  0.6700  0.0090  0.4862 -0.0027
                                        -0.0022 -0.0031  0.0209 -0.0165  0.0039
               ( 45.36%)  -0.6735* C  3 s( 28.16%)p 2.55( 71.79%)d 0.00(  0.05%)
                                         0.0003  0.5307 -0.0023 -0.0012  0.0314
                                        -0.0082 -0.6886  0.0114 -0.4925  0.0013
                                         0.0008 -0.0005  0.0181 -0.0143  0.0016
 137. (0.01347) BD*( 1) C  2- O  7       
               ( 67.19%)   0.8197* C  2 s( 29.81%)p 2.35( 70.02%)d 0.01(  0.17%)
                                         0.0001 -0.5419 -0.0670 -0.0008  0.7071
                                         0.0591  0.2257  0.0256  0.3793  0.0357
                                        -0.0170 -0.0262 -0.0037 -0.0258  0.0091
               ( 32.81%)  -0.5728* O  7 s( 44.63%)p 1.23( 55.09%)d 0.01(  0.28%)
                                         0.0000 -0.6680 -0.0127 -0.0001 -0.6412
                                         0.0088 -0.2102  0.0048 -0.3090  0.0044
                                        -0.0238 -0.0342 -0.0091 -0.0293  0.0102
 138. (0.11761) BD*( 2) C  2- O  7       
               ( 70.56%)   0.8400* C  2 s(  0.01%)p99.99( 99.72%)d21.96(  0.27%)
                                         0.0000 -0.0035 -0.0105  0.0009 -0.2365
                                         0.0055 -0.5781  0.0251  0.7782 -0.0274
                                         0.0291 -0.0333  0.0030  0.0055 -0.0265
               ( 29.44%)  -0.5426* O  7 s(  0.01%)p99.99( 99.75%)d17.24(  0.23%)
                                         0.0000  0.0116  0.0009 -0.0003 -0.2069
                                         0.0011 -0.5711  0.0061  0.7927 -0.0088
                                        -0.0254  0.0268 -0.0003  0.0007  0.0309
 139. (0.01075) BD*( 1) C  3- H 10       
               ( 37.91%)   0.6157* C  3 s( 25.69%)p 2.89( 74.23%)d 0.00(  0.08%)
                                         0.0001 -0.5068 -0.0023 -0.0002 -0.7428
                                        -0.0009 -0.1252 -0.0077 -0.4182  0.0008
                                        -0.0067 -0.0212 -0.0038 -0.0170  0.0040
               ( 62.09%)  -0.7880* H 10 s(100.00%)
                                        -1.0000 -0.0026
 140. (0.00683) BD*( 1) C  3- H 11       
               ( 39.09%)   0.6252* C  3 s( 23.24%)p 3.30( 76.68%)d 0.00(  0.08%)
                                         0.0000 -0.4821 -0.0022 -0.0004  0.1761
                                        -0.0078 -0.7087 -0.0068  0.4831 -0.0008
                                         0.0094 -0.0060  0.0220  0.0147 -0.0002
               ( 60.91%)  -0.7805* H 11 s(100.00%)
                                        -1.0000 -0.0010
 141. (0.01438) BD*( 1) C  3- H 12       
               ( 40.67%)   0.6377* C  3 s( 22.89%)p 3.37( 77.02%)d 0.00(  0.09%)
                                        -0.0001  0.4784  0.0005  0.0005 -0.6442
                                        -0.0022 -0.0829  0.0040  0.5901  0.0099
                                         0.0041 -0.0259 -0.0036  0.0134  0.0038
               ( 59.33%)  -0.7702* H 12 s(100.00%)
                                         1.0000  0.0047
 142. (0.07767) BD*( 1) C  4- O  8       
               ( 67.10%)   0.8191* C  4 s( 29.03%)p 2.44( 70.79%)d 0.01(  0.18%)
                                        -0.0001  0.5377  0.0333 -0.0046  0.5902
                                         0.0665 -0.0709 -0.0092  0.5911  0.0240
                                        -0.0107  0.0339 -0.0015  0.0218  0.0095
               ( 32.90%)  -0.5736* O  8 s( 38.27%)p 1.61( 61.49%)d 0.01(  0.24%)
                                         0.0000  0.6185  0.0101  0.0024 -0.6925
                                        -0.0090  0.3090  0.0047 -0.1993 -0.0060
                                        -0.0241  0.0299 -0.0100  0.0273 -0.0107
 143. (0.38505) BD*( 2) C  4- O  8       
               ( 75.58%)   0.8694* C  4 s(  3.93%)p24.36( 95.75%)d 0.08(  0.32%)
                                         0.0001 -0.1965 -0.0260  0.0047 -0.4816
                                        -0.0027  0.4570 -0.0283  0.7169 -0.0441
                                         0.0326  0.0173  0.0073 -0.0091  0.0414
               ( 24.42%)  -0.4941* O  8 s(  2.12%)p46.03( 97.70%)d 0.09(  0.18%)
                                         0.0000 -0.1457 -0.0022 -0.0013 -0.1719
                                        -0.0005  0.4602  0.0022  0.8577  0.0058
                                        -0.0164 -0.0287  0.0000 -0.0001 -0.0267
 144. (0.08043) BD*( 1) C  4- O  9       
               ( 67.32%)   0.8205* C  4 s( 32.51%)p 2.07( 67.29%)d 0.01(  0.20%)
                                         0.0002 -0.5692 -0.0329  0.0056  0.0731
                                        -0.0132 -0.7315 -0.0593  0.3567  0.0387
                                         0.0164  0.0026  0.0248  0.0313  0.0126
               ( 32.68%)  -0.5717* O  9 s( 37.01%)p 1.70( 62.75%)d 0.01(  0.24%)
                                         0.0000 -0.6083  0.0096 -0.0024 -0.0018
                                        -0.0026  0.4836  0.0088 -0.6273 -0.0075
                                         0.0053 -0.0025  0.0413  0.0243 -0.0082
 145. (0.01410) BD*( 1) C  5- H 13       
               ( 40.15%)   0.6337* C  5 s( 23.54%)p 3.24( 76.37%)d 0.00(  0.09%)
                                         0.0000 -0.4851 -0.0027 -0.0002  0.5207
                                         0.0008  0.6958  0.0121  0.0910 -0.0011
                                        -0.0250 -0.0022 -0.0035  0.0060  0.0147
               ( 59.85%)  -0.7736* H 13 s(100.00%)
                                        -1.0000 -0.0061
 146. (0.01882) BD*( 1) C  5- H 14       
               ( 38.51%)   0.6205* C  5 s( 24.31%)p 3.11( 75.60%)d 0.00(  0.08%)
                                         0.0002 -0.4930 -0.0077 -0.0002 -0.7875
                                        -0.0055  0.2777 -0.0019 -0.2423 -0.0018
                                         0.0146 -0.0142  0.0043 -0.0176  0.0098
               ( 61.49%)  -0.7842* H 14 s(100.00%)
                                        -1.0000 -0.0075
 147. (0.01957) BD*( 1) C  5- H 15       
               ( 41.68%)   0.6456* C  5 s( 23.69%)p 3.22( 76.22%)d 0.00(  0.10%)
                                         0.0000 -0.4866 -0.0063 -0.0002  0.3250
                                        -0.0004 -0.4985 -0.0022 -0.6385 -0.0176
                                         0.0107  0.0152 -0.0221  0.0033 -0.0112
               ( 58.32%)  -0.7637* H 15 s(100.00%)
                                        -1.0000 -0.0063


 NHO DIRECTIONALITY AND BOND BENDING (deviations from line of nuclear centers)

         [Thresholds for printing:  angular deviation  >  1.0 degree]
                                    p- or d-character  > 25.0%
                                    orbital occupancy  >  0.10e

                       Line of Centers        Hybrid 1              Hybrid 2
                       ---------------  -------------------   ------------------
           NBO           Theta   Phi    Theta   Phi    Dev    Theta   Phi    Dev
 ===============================================================================
   1. BD ( 1) C 1- C 2    87.6  148.5    95.9  148.5   8.3     98.9  327.5   6.6
   2. BD ( 1) C 1- C 4    89.8   39.7    91.7   37.7   2.8     87.7  219.0   2.6
   3. BD ( 1) C 1- C 5    27.0  261.2    30.0  269.1   4.8    149.8   83.0   3.4
   5. BD ( 1) C 2- C 3    53.4   91.4    54.6   94.8   3.0      --     --    --
   6. BD ( 1) C 2- O 7   115.6  197.6   117.2  198.1   1.7      --     --    --
   7. BD ( 2) C 2- O 7   115.6  197.6    38.8  246.9  88.1    *****   69.7  90.1
   9. BD ( 1) C 3- H11   124.6  103.3   123.3  103.3   1.3      --     --    --
  10. BD ( 1) C 3- H12    48.2  188.1    47.4  187.0   1.2      --     --    --
  11. BD ( 1) C 4- O 8    58.9  342.6    47.1  353.0  14.5    105.1  156.0  17.1
  12. BD ( 2) C 4- O 8    58.9  342.6   135.7  318.7  79.8    150.4  290.1  79.0
  13. BD ( 1) C 4- O 9   123.4   97.7   116.4   94.4   7.5     38.0  270.6  19.3
  14. BD ( 1) C 5- H13    98.3  232.7    95.8  233.6   2.6      --     --    --
  15. BD ( 1) C 5- H14    75.5  342.5    73.8  340.8   2.3      --     --    --
  26. LP ( 1) O 6          --     --     43.1   96.9   --       --     --    --
  27. LP ( 2) O 6          --     --     73.0  204.3   --       --     --    --
  28. LP ( 3) O 6          --     --    128.4  128.4   --       --     --    --
  29. LP ( 1) O 7          --     --     65.2   15.6   --       --     --    --
  30. LP ( 2) O 7          --     --     63.8  120.1   --       --     --    --
  31. LP ( 1) O 8          --     --    120.0  164.1   --       --     --    --
  32. LP ( 2) O 8          --     --    110.6   61.1   --       --     --    --
  33. LP ( 1) O 9          --     --    123.0   92.2   --       --     --    --
  34. LP ( 2) O 9          --     --    103.0  194.5   --       --     --    --
  35. LP ( 3) O 9          --     --     47.8  116.9   --       --     --    --
 132. BD*( 1) C 1- C 2    87.6  148.5    95.9  148.5   8.3     98.9  327.5   6.6
 133. BD*( 1) C 1- C 4    89.8   39.7    91.7   37.7   2.8     87.7  219.0   2.6
 138. BD*( 2) C 2- O 7   115.6  197.6    38.8  246.9  88.1    *****   69.7  90.1
 143. BD*( 2) C 4- O 8    58.9  342.6   135.7  318.7  79.8    150.4  290.1  79.0
 SVNBO: NDIM =          147
 NBO state            0


 SECOND ORDER PERTURBATION THEORY ANALYSIS OF FOCK MATRIX IN NBO BASIS

     Threshold for printing:   0.50 kcal/mol
                                                          E(2)  E(j)-E(i) F(i,j)
      Donor NBO (i)              Acceptor NBO (j)       kcal/mol   a.u.    a.u. 
 ===============================================================================

 within unit  1
   1. BD ( 1) C 1- C 2       96. RY*( 1) O 7              1.21    1.68    0.040
   1. BD ( 1) C 1- C 2      141. BD*( 1) C 3- H12         0.83    0.94    0.025
   1. BD ( 1) C 1- C 2      142. BD*( 1) C 4- O 8         1.45    1.14    0.037
   1. BD ( 1) C 1- C 2      146. BD*( 1) C 5- H14         2.21    1.03    0.043
   2. BD ( 1) C 1- C 4       47. RY*( 2) C 2              0.70    1.69    0.031
   2. BD ( 1) C 1- C 4       86. RY*( 1) O 6              0.84    1.71    0.034
   2. BD ( 1) C 1- C 4      106. RY*( 1) O 8              1.00    1.77    0.038
[...]
   5. BD ( 1) C 2- C 3      140. BD*( 1) C 3- H11         0.79    1.01    0.025
   5. BD ( 1) C 2- C 3      141. BD*( 1) C 3- H12         0.60    0.99    0.022
   6. BD ( 1) C 2- O 7       46. RY*( 1) C 2              1.68    1.82    0.050
   6. BD ( 1) C 2- O 7      132. BD*( 1) C 1- C 2         0.66    1.45    0.029
   6. BD ( 1) C 2- O 7      139. BD*( 1) C 3- H10         0.58    1.48    0.026
   7. BD ( 2) C 2- O 7      133. BD*( 1) C 1- C 4         0.59    0.74    0.019
   7. BD ( 2) C 2- O 7      134. BD*( 1) C 1- C 5         0.92    0.69    0.023
   7. BD ( 2) C 2- O 7      140. BD*( 1) C 3- H11         0.91    0.76    0.023
   7. BD ( 2) C 2- O 7      141. BD*( 1) C 3- H12         0.65    0.73    0.019
   8. BD ( 1) C 3- H10       50. RY*( 5) C 2              0.62    2.30    0.034
   8. BD ( 1) C 3- H10      137. BD*( 1) C 2- O 7         3.08    1.12    0.053
   8. BD ( 1) C 3- H10      143. BD*( 2) C 4- O 8         0.53    0.64    0.018
   9. BD ( 1) C 3- H11      132. BD*( 1) C 1- C 2         1.08    0.93    0.029
   9. BD ( 1) C 3- H11      138. BD*( 2) C 2- O 7         3.92    0.57    0.043
  10. BD ( 1) C 3- H12      132. BD*( 1) C 1- C 2         1.36    0.93    0.033
  10. BD ( 1) C 3- H12      138. BD*( 2) C 2- O 7         2.82    0.57    0.037
  11. BD ( 1) C 4- O 8       37. RY*( 2) C 1              0.54    1.96    0.029
  11. BD ( 1) C 4- O 8       66. RY*( 1) C 4              1.18    1.79    0.041
  11. BD ( 1) C 4- O 8      143. BD*( 2) C 4- O 8         0.52    0.99    0.023
  12. BD ( 2) C 4- O 8      132. BD*( 1) C 1- C 2         0.66    0.70    0.020
  12. BD ( 2) C 4- O 8      135. BD*( 1) C 1- O 6         1.34    0.84    0.030
  12. BD ( 2) C 4- O 8      143. BD*( 2) C 4- O 8         2.19    0.41    0.030
  12. BD ( 2) C 4- O 8      144. BD*( 1) C 4- O 9         1.69    0.89    0.035
  13. BD ( 1) C 4- O 9       37. RY*( 2) C 1              0.66    1.95    0.032
  13. BD ( 1) C 4- O 9       66. RY*( 1) C 4              1.07    1.79    0.039
  13. BD ( 1) C 4- O 9      134. BD*( 1) C 1- C 5         0.52    1.21    0.023
  14. BD ( 1) C 5- H13       36. RY*( 1) C 1              0.55    1.45    0.025
  14. BD ( 1) C 5- H13      133. BD*( 1) C 1- C 4         1.91    0.87    0.038
  14. BD ( 1) C 5- H13      135. BD*( 1) C 1- O 6         0.72    1.02    0.024
  15. BD ( 1) C 5- H14      132. BD*( 1) C 1- C 2         1.30    0.88    0.031
  15. BD ( 1) C 5- H14      134. BD*( 1) C 1- C 5         0.50    0.82    0.019
  16. BD ( 1) C 5- H15       37. RY*( 2) C 1              0.85    1.57    0.033
  16. BD ( 1) C 5- H15      135. BD*( 1) C 1- O 6         1.48    1.03    0.035
  16. BD ( 1) C 5- H15      138. BD*( 2) C 2- O 7         1.11    0.54    0.022
  17. CR ( 1) C 1            67. RY*( 2) C 4              0.97   10.99    0.093
  17. CR ( 1) C 1           136. BD*( 1) C 2- C 3         0.56   10.42    0.070
  17. CR ( 1) C 1           137. BD*( 1) C 2- O 7         0.65   10.65    0.075
  18. CR ( 1) C 2            37. RY*( 2) C 1              1.14   11.20    0.101
  18. CR ( 1) C 2            57. RY*( 2) C 3              0.65   10.89    0.075
  19. CR ( 1) C 3            47. RY*( 2) C 2              1.63   11.26    0.121
  20. CR ( 1) C 4            38. RY*( 3) C 1              0.79   11.48    0.085
  20. CR ( 1) C 4            39. RY*( 4) C 1              0.51   11.80    0.069
  21. CR ( 1) C 5            37. RY*( 2) C 1              0.89   11.11    0.089
  22. CR ( 1) O 6            36. RY*( 1) C 1              4.74   19.69    0.274
  23. CR ( 1) O 7            46. RY*( 1) C 2              6.75   19.62    0.326
  23. CR ( 1) O 7           132. BD*( 1) C 1- C 2         0.53   19.25    0.094
  24. CR ( 1) O 8            66. RY*( 1) C 4              4.28   19.70    0.261
  24. CR ( 1) O 8            67. RY*( 2) C 4              1.61   19.72    0.160
  24. CR ( 1) O 8           144. BD*( 1) C 4- O 9         0.59   19.38    0.097
  25. CR ( 1) O 9            66. RY*( 1) C 4              3.95   19.70    0.250
  25. CR ( 1) O 9            67. RY*( 2) C 4              1.79   19.71    0.169
  25. CR ( 1) O 9           142. BD*( 1) C 4- O 8         0.85   19.37    0.117
  26. LP ( 1) O 6            36. RY*( 1) C 1             13.93    1.55    0.132
  26. LP ( 1) O 6           132. BD*( 1) C 1- C 2         1.17    0.99    0.031
  26. LP ( 1) O 6           133. BD*( 1) C 1- C 4         0.83    0.98    0.026
  26. LP ( 1) O 6           134. BD*( 1) C 1- C 5         0.89    0.93    0.026
  27. LP ( 2) O 6            38. RY*( 3) C 1              1.89    1.50    0.049
  27. LP ( 2) O 6            39. RY*( 4) C 1              0.80    1.83    0.035
  27. LP ( 2) O 6            41. RY*( 6) C 1              0.52    1.96    0.030
  27. LP ( 2) O 6           132. BD*( 1) C 1- C 2         6.76    0.52    0.053
  27. LP ( 2) O 6           133. BD*( 1) C 1- C 4        18.05    0.51    0.085
  27. LP ( 2) O 6           134. BD*( 1) C 1- C 5         5.27    0.46    0.045
  27. LP ( 2) O 6           138. BD*( 2) C 2- O 7         0.79    0.16    0.010
  27. LP ( 2) O 6           143. BD*( 2) C 4- O 8         2.33    0.23    0.022
  28. LP ( 3) O 6            37. RY*( 2) C 1              0.92    1.20    0.031
  28. LP ( 3) O 6            40. RY*( 5) C 1              1.75    2.21    0.058
  28. LP ( 3) O 6           132. BD*( 1) C 1- C 2        15.75    0.52    0.081
  28. LP ( 3) O 6           134. BD*( 1) C 1- C 5        16.76    0.46    0.080
  28. LP ( 3) O 6           136. BD*( 1) C 2- C 3         0.67    0.48    0.016
  28. LP ( 3) O 6           147. BD*( 1) C 5- H15         1.11    0.53    0.023
  29. LP ( 1) O 7            46. RY*( 1) C 2             18.06    1.44    0.144
  29. LP ( 1) O 7           132. BD*( 1) C 1- C 2         2.01    1.07    0.042
  29. LP ( 1) O 7           136. BD*( 1) C 2- C 3         1.41    1.03    0.035
  30. LP ( 2) O 7            47. RY*( 2) C 2              0.81    1.43    0.031
  30. LP ( 2) O 7            49. RY*( 4) C 2              1.03    1.67    0.038
  30. LP ( 2) O 7            50. RY*( 5) C 2              2.06    2.02    0.059
  30. LP ( 2) O 7           132. BD*( 1) C 1- C 2        16.28    0.64    0.092
  30. LP ( 2) O 7           136. BD*( 1) C 2- C 3        21.50    0.61    0.103
  30. LP ( 2) O 7           139. BD*( 1) C 3- H10         0.92    0.68    0.023
  31. LP ( 1) O 8            66. RY*( 1) C 4             10.27    1.52    0.112
  31. LP ( 1) O 8            67. RY*( 2) C 4              4.13    1.54    0.071
  31. LP ( 1) O 8           133. BD*( 1) C 1- C 4         2.00    1.00    0.041
  31. LP ( 1) O 8           144. BD*( 1) C 4- O 9         1.67    1.20    0.041
  32. LP ( 2) O 8            67. RY*( 2) C 4              0.83    1.10    0.028
  32. LP ( 2) O 8            70. RY*( 5) C 4              0.95    2.85    0.048
  32. LP ( 2) O 8            71. RY*( 6) C 4              0.50    2.67    0.034
  32. LP ( 2) O 8           132. BD*( 1) C 1- C 2         0.63    0.57    0.017
  32. LP ( 2) O 8           133. BD*( 1) C 1- C 4        18.19    0.56    0.090
  32. LP ( 2) O 8           143. BD*( 2) C 4- O 8         0.71    0.28    0.014
  32. LP ( 2) O 8           144. BD*( 1) C 4- O 9        20.04    0.76    0.111
  32. LP ( 2) O 8           146. BD*( 1) C 5- H14         0.89    0.64    0.022
  33. LP ( 1) O 9            66. RY*( 1) C 4              9.44    1.52    0.107
  33. LP ( 1) O 9            67. RY*( 2) C 4              4.77    1.54    0.077
  33. LP ( 1) O 9           133. BD*( 1) C 1- C 4         2.09    1.00    0.042
  33. LP ( 1) O 9           142. BD*( 1) C 4- O 8         1.82    1.20    0.042
  34. LP ( 2) O 9            67. RY*( 2) C 4              0.73    1.10    0.026
  34. LP ( 2) O 9            70. RY*( 5) C 4              0.81    2.85    0.044
  34. LP ( 2) O 9            71. RY*( 6) C 4              0.64    2.67    0.038
  34. LP ( 2) O 9           133. BD*( 1) C 1- C 4        16.83    0.56    0.087
  34. LP ( 2) O 9           134. BD*( 1) C 1- C 5         0.90    0.51    0.019
  34. LP ( 2) O 9           138. BD*( 2) C 2- O 7         1.39    0.21    0.015
  34. LP ( 2) O 9           142. BD*( 1) C 4- O 8        19.90    0.75    0.110
  34. LP ( 2) O 9           143. BD*( 2) C 4- O 8         3.11    0.28    0.028
  35. LP ( 3) O 9            68. RY*( 3) C 4              2.20    2.44    0.073
  35. LP ( 3) O 9            73. RY*( 8) C 4              0.69    2.06    0.038
  35. LP ( 3) O 9           142. BD*( 1) C 4- O 8         3.71    0.76    0.052
  35. LP ( 3) O 9           143. BD*( 2) C 4- O 8        91.90    0.29    0.146
  35. LP ( 3) O 9           144. BD*( 1) C 4- O 9        16.63    0.77    0.110


 NATURAL BOND ORBITALS (Summary):

                                                     Principal Delocalizations
           NBO                 Occupancy    Energy   (geminal,vicinal,remote)
 ===============================================================================
 Molecular unit  1  (C5H6O4)
   1. BD ( 1) C  1- C  2        1.97911    -0.23943  146(v),142(v),96(v),141(v)
   2. BD ( 1) C  1- C  4        1.96498    -0.18393  137(v),145(v),138(v),106(v)
                                                    116(v),86(v),47(v)
   3. BD ( 1) C  1- C  5        1.94433    -0.18395  138(v),144(v),137(v),48(v)
                                                    146(g),87(v),145(g),147(g)
                                                    129(v)
   4. BD ( 1) C  1- O  6        1.98775    -0.47437  136(v),36(g),147(v),143(v)
   5. BD ( 1) C  2- C  3        1.99185    -0.29190  135(v),37(v),96(v),140(g)
                                                    139(g),36(v),141(g)
   6. BD ( 1) C  2- O  7        1.99701    -0.73097  46(g),132(g),139(v)
   7. BD ( 2) C  2- O  7        1.99149    -0.03428  134(v),140(v),141(v),133(v)
   8. BD ( 1) C  3- H 10        1.98965    -0.20770  137(v),143(r),50(v)
   9. BD ( 1) C  3- H 11        1.98063    -0.20931  138(v),132(v)
  10. BD ( 1) C  3- H 12        1.98502    -0.21454  138(v),132(v)
  11. BD ( 1) C  4- O  8        1.99636    -0.56122  66(g),143(g),37(v)
  12. BD ( 2) C  4- O  8        1.98653     0.01622  143(g),144(g),135(v),132(v)
  13. BD ( 1) C  4- O  9        1.99152    -0.55491  66(g),37(v),134(v)
  14. BD ( 1) C  5- H 13        1.99165    -0.16526  133(v),135(v),36(v)
  15. BD ( 1) C  5- H 14        1.98595    -0.16201  132(v),134(g),138(r)
  16. BD ( 1) C  5- H 15        1.99144    -0.17728  135(v),138(r),37(v)
  17. CR ( 1) C  1              1.99902    -9.73776   67(v),137(v),136(v)
  18. CR ( 1) C  2              1.99930    -9.80374   37(v),57(v)
  19. CR ( 1) C  3              1.99936    -9.75658   47(v)
  20. CR ( 1) C  4              1.99950    -9.77703   38(v),39(v)
  21. CR ( 1) C  5              1.99937    -9.71605   37(v)
  22. CR ( 1) O  6              1.99984   -18.41226   36(v)
  23. CR ( 1) O  7              1.99978   -18.53490   46(v),132(v)
  24. CR ( 1) O  8              1.99980   -18.46755   66(v),67(v),144(v)
  25. CR ( 1) O  9              1.99980   -18.46639   66(v),67(v),142(v)
  26. LP ( 1) O  6              1.97916    -0.27130   36(v),132(v),134(v),133(v)
  27. LP ( 2) O  6              1.84541     0.20140   133(v),132(v),134(v),143(r)
                                                    38(v),39(v),138(r),41(v)
  28. LP ( 3) O  6              1.83951     0.20114   134(v),132(v),40(v),147(r)
                                                    37(v),136(r)
  29. LP ( 1) O  7              1.97768    -0.34845   46(v),132(v),136(v)
  30. LP ( 2) O  7              1.89415     0.07429   136(v),132(v),50(v),49(v)
                                                    139(r),47(v)
  31. LP ( 1) O  8              1.97709    -0.29212   66(v),67(v),133(v),144(v)
  32. LP ( 2) O  8              1.87785     0.15087   144(v),133(v),70(v),146(r)
                                                    67(v),143(g),132(r),71(v)
  33. LP ( 1) O  9              1.97579    -0.29345   66(v),67(v),133(v),142(v)
  34. LP ( 2) O  9              1.89148     0.15031   142(v),133(v),143(v),138(r)
                                                    134(r),70(v),67(v),71(v)
  35. LP ( 3) O  9              1.59279     0.14162   143(v),144(g),142(v),68(v)
                                                    73(v)
  36. RY*( 1) C  1              0.01408     1.28233
  37. RY*( 2) C  1              0.00932     1.39628
  38. RY*( 3) C  1              0.00593     1.70074
  39. RY*( 4) C  1              0.00252     2.02669
  40. RY*( 5) C  1              0.00189     2.40988
  41. RY*( 6) C  1              0.00055     2.16501
  42. RY*( 7) C  1              0.00038     2.57826
  43. RY*( 8) C  1              0.00029     2.75778
  44. RY*( 9) C  1              0.00021     2.42445
  45. RY*(10) C  1              0.00007     4.81394
  46. RY*( 1) C  2              0.01875     1.09004
  47. RY*( 2) C  2              0.00714     1.50808
  48. RY*( 3) C  2              0.00385     1.35761
  49. RY*( 4) C  2              0.00322     1.74687
  50. RY*( 5) C  2              0.00179     2.09224
  51. RY*( 6) C  2              0.00077     2.22243
  52. RY*( 7) C  2              0.00057     2.69890
  53. RY*( 8) C  2              0.00027     2.28329
  54. RY*( 9) C  2              0.00007     4.54474
  55. RY*(10) C  2              0.00003     2.55501
  56. RY*( 1) C  3              0.00302     0.99919
  57. RY*( 2) C  3              0.00148     1.09017
  58. RY*( 3) C  3              0.00088     1.04103
  59. RY*( 4) C  3              0.00026     2.19398
  60. RY*( 5) C  3              0.00021     2.19026
  61. RY*( 6) C  3              0.00011     1.93491
  62. RY*( 7) C  3              0.00002     2.55882
  63. RY*( 8) C  3              0.00002     2.27032
  64. RY*( 9) C  3              0.00002     2.32271
  65. RY*(10) C  3              0.00000     4.06262
  66. RY*( 1) C  4              0.02513     1.23023
  67. RY*( 2) C  4              0.01639     1.24758
  68. RY*( 3) C  4              0.00550     2.58227
  69. RY*( 4) C  4              0.00285     1.15654
  70. RY*( 5) C  4              0.00282     2.99607
  71. RY*( 6) C  4              0.00232     2.81588
  72. RY*( 7) C  4              0.00099     1.62587
  73. RY*( 8) C  4              0.00023     2.19871
  74. RY*( 9) C  4              0.00011     3.84532
  75. RY*(10) C  4              0.00002     2.80182
  76. RY*( 1) C  5              0.00479     1.13139
  77. RY*( 2) C  5              0.00116     1.22092
  78. RY*( 3) C  5              0.00084     1.23456
  79. RY*( 4) C  5              0.00035     2.14831
  80. RY*( 5) C  5              0.00025     2.27609
  81. RY*( 6) C  5              0.00016     1.59477
  82. RY*( 7) C  5              0.00003     2.32840
  83. RY*( 8) C  5              0.00002     2.48227
  84. RY*( 9) C  5              0.00001     2.28388
  85. RY*(10) C  5              0.00001     4.43352
  86. RY*( 1) O  6              0.00237     1.52695
  87. RY*( 2) O  6              0.00166     1.50299
  88. RY*( 3) O  6              0.00014     2.17958
  89. RY*( 4) O  6              0.00005     2.51021
  90. RY*( 5) O  6              0.00003     2.53640
  91. RY*( 6) O  6              0.00003     2.84826
  92. RY*( 7) O  6              0.00002     1.60858
  93. RY*( 8) O  6              0.00001     3.97733
  94. RY*( 9) O  6              0.00001     2.45318
  95. RY*(10) O  6              0.00001     2.38269
  96. RY*( 1) O  7              0.00359     1.44239
  97. RY*( 2) O  7              0.00054     1.59080
  98. RY*( 3) O  7              0.00034     1.97831
  99. RY*( 4) O  7              0.00009     2.80413
 100. RY*( 5) O  7              0.00007     1.82142
 101. RY*( 6) O  7              0.00003     2.31777
 102. RY*( 7) O  7              0.00002     2.27482
 103. RY*( 8) O  7              0.00001     2.37544
 104. RY*( 9) O  7              0.00001     2.62902
 105. RY*(10) O  7              0.00001     3.37684
 106. RY*( 1) O  8              0.00145     1.58592
 107. RY*( 2) O  8              0.00085     1.45330
 108. RY*( 3) O  8              0.00050     2.44824
 109. RY*( 4) O  8              0.00009     1.51675
 110. RY*( 5) O  8              0.00006     3.13107
 111. RY*( 6) O  8              0.00002     2.49640
 112. RY*( 7) O  8              0.00002     2.67106
 113. RY*( 8) O  8              0.00001     2.39463
 114. RY*( 9) O  8              0.00002     3.27696
 115. RY*(10) O  8              0.00001     2.39815
 116. RY*( 1) O  9              0.00149     1.60030
 117. RY*( 2) O  9              0.00081     1.46552
 118. RY*( 3) O  9              0.00044     2.42220
 119. RY*( 4) O  9              0.00009     1.60412
 120. RY*( 5) O  9              0.00005     3.19725
 121. RY*( 6) O  9              0.00003     2.48778
 122. RY*( 7) O  9              0.00001     2.41908
 123. RY*( 8) O  9              0.00001     3.29412
 124. RY*( 9) O  9              0.00002     2.49372
 125. RY*(10) O  9              0.00001     2.37098
 126. RY*( 1) H 10              0.00158     1.01851
 127. RY*( 1) H 11              0.00254     0.93405
 128. RY*( 1) H 12              0.00439     0.93568
 129. RY*( 1) H 13              0.00656     0.97621
 130. RY*( 1) H 14              0.00528     0.99618
 131. RY*( 1) H 15              0.00448     1.01927
 132. BD*( 1) C  1- C  2        0.13143     0.71858  139(v),147(v),140(v),136(g)
                                                    49(g),141(v),37(g),137(g)
                                                    144(v),48(g),39(g),134(g)
 133. BD*( 1) C  1- C  4        0.14443     0.70656  136(v),72(g),145(v),146(v)
                                                    137(v),69(g),41(g)
 134. BD*( 1) C  1- C  5        0.09667     0.65956
 135. BD*( 1) C  1- O  6        0.01331     0.85515
 136. BD*( 1) C  2- C  3        0.07198     0.68549
 137. BD*( 1) C  2- O  7        0.01347     0.91629
 138. BD*( 2) C  2- O  7        0.11761     0.35830  51(g)
 139. BD*( 1) C  3- H 10        0.01075     0.75274
 140. BD*( 1) C  3- H 11        0.00683     0.72226
 141. BD*( 1) C  3- H 12        0.01438     0.70050
 142. BD*( 1) C  4- O  8        0.07767     0.90471
 143. BD*( 2) C  4- O  8        0.38505     0.43102  142(g),135(v),68(g),107(g)
                                                    132(v),73(g),134(v)
 144. BD*( 1) C  4- O  9        0.08043     0.90860
 145. BD*( 1) C  5- H 13        0.01410     0.75727
 146. BD*( 1) C  5- H 14        0.01882     0.78726
 147. BD*( 1) C  5- H 15        0.01957     0.73555
          -------------------------------
                 Total Lewis   68.60195  ( 98.0028%)
           Valence non-Lewis    1.21650  (  1.7379%)
           Rydberg non-Lewis    0.18154  (  0.2593%)
          -------------------------------
               Total unit  1   70.00000  (100.0000%)
              Charge unit  1   -2.00000

 *******************************************************************************
Archival summary:
1\1\bt2600-04\SP\ProcedureUnspecified\6-31G*\456(2-,1)\emavera\WedJun1412:11:172017WedJun1412:11:172017\0\\#,ProcedureUnspecified,6-31G*,\\-2,1\C\O,1,1.33252\C,1,1.56221,2,116.154\O,3,1.23085,1,124.909,2,-19.2471,0\C,3,1.5424,1,117.42,2,167.61,0\H,5,1.09292,3,112.579,1,-0.242097,0\H,5,1.09664,3,107.989,1,-119.373,0\H,5,1.10228,3,109.167,1,122.545,0\C,1,1.60649,2,110.891,3,-110.588,0\H,9,1.09359,1,106.858,2,-78.4855,0\H,9,1.09881,1,105.43,2,39.8183,0\H,9,1.10741,1,115.886,2,160.536,0\C,1,1.60871,2,112.404,3,126.204,0\O,13,1.26659,1,117.84,2,88.0466,0\O,13,1.27072,1,116.166,2,-89.5662,0\\\@

 Total job time:  98.28s(wall), 78.77s(cpu) 
 Wed Jun 14 12:11:17 2017

        *************************************************************
        *                                                           *
        *  Thank you very much for using Q-Chem.  Have a nice day.  *
        *                                                           *
        *************************************************************


0 sent ACK to 0 
now end server 0 ... 
cleanup process ... done
