
Running Job 1 of 1 kari_fsm_1.qcin
qchem kari_fsm_1.qcin_61411.0 /tmp/kari_fsm_1.qcin/ 1
/programs/x86_64/lib/qchem-4.3.2/bin/mpi/mpirun_qchem -machinefile /var/spool/torque/aux//113255.vali -np 1 /programs/x86_64/lib/qchem-4.3.2/exe/qcprog.exe kari_fsm_1.qcin_61411.0 /tmp/kari_fsm_1.qcin/

Process 0 of 1 is on bt2600-16.csail.mit.edu - thread support 0
initial socket setup ...start
initial socket setup ...done 
now start server 0 ... 

cmd = ssh thor /programs/x86_64/lib/qchem-4.3.2/bin/get_hostid 333350757 > /tmp/kari_fsm_1.qcin/lic.dat
                  Welcome to Q-Chem
     A Quantum Leap Into The Future Of Chemistry


 Q-Chem 4.3, Q-Chem, Inc., Pleasanton, CA (2015)

 Y. Shao,  Z. Gan,  E. Epifanovsky,  A. T. B. Gilbert,  M. Wormit,  
 J. Kussmann,  A. W. Lange,  A. Behn,  J. Deng,  X. Feng,  D. Ghosh,  
 M. Goldey,  P. R. Horn,  L. D. Jacobson,  I. Kaliman,  R. Z. Khaliullin,  
 T. Kus,  A. Landau,  J. Liu,  E. I. Proynov,  Y. M. Rhee,  R. M. Richard,  
 M. A. Rohrdanz,  R. P. Steele,  E. J. Sundstrom,  H. L. Woodcock III,  
 P. M. Zimmerman,  D. Zuev,  B. Albrecht,  E. Alguire,  B. Austin,  
 S. A. Baeppler,  G. J. O. Beran,  Y. A. Bernard,  E. Berquist,  
 K. Brandhorst,  K. B. Bravaya,  S. T. Brown,  D. Casanova,  C.-M. Chang,  
 Y. Chen,  S. H. Chien,  K. D. Closser,  D. L. Crittenden,  M. Diedenhofen,  
 R. A. DiStasio Jr.,  H. Do,  A. D. Dutoi,  R. G. Edgar,  P.-T. Fang,  
 S. Fatehi,  Q. Feng,  L. Fusti-Molnar,  A. Ghysels,  
 A. Golubeva-Zadorozhnaya,  J. Gomes,  A. Gunina,  M. W. D. Hanson-Heine,  
 P. H. P. Harbach,  A. W. Hauser,  E. G. Hohenstein,  Z. C. Holden,  K. Hui,  
 T.-C. Jagau,  H. Ji,  B. Kaduk,  K. Khistyaev,  Jaehoon Kim,  Jihan Kim,  
 R. A. King,  P. Klunzinger,  D. Kosenkov,  T. Kowalczyk,  C. M. Krauter,  
 K. U. Lao,  A. Laurent,  K. V. Lawler,  S. Lehtola,  S. V. Levchenko,  
 C. Y. Lin,  Y.-S. Lin,  F. Liu,  E. Livshits,  R. C. Lochan,  A. Luenser,  
 P. Manohar,  S. F. Manzer,  S.-P. Mao,  N. Mardirossian,  A. V. Marenich,  
 L. A. Martinez-Martinez,  S. A. Maurer,  N. J. Mayhall,  K. Nanda,  
 C. M. Oana,  R. Olivares-Amaya,  D. P. O'Neill,  J. A. Parkhill,  
 T. M. Perrine,  R. Peverati,  P. A. Pieniazek,  F. Plasser,  A. Prociuk,  
 D. R. Rehn,  E. Rosta,  N. J. Russ,  N. Sergueev,  S. M. Sharada,  
 S. Sharma,  D. W. Small,  A. Sodt,  T. Stauch,  T. Stein,  D. Stuck,  
 Y.-C. Su,  A. J. W. Thom,  T. Tsuchimochi,  L. Vogt,  O. Vydrov,  T. Wang,  
 M. A. Watson,  J. Wenzel,  A. White,  C. F. Williams,  V. Vanovschi,  
 S. Yeganeh,  S. R. Yost,  Z.-Q. You,  I. Y. Zhang,  X. Zhang,  Y. Zhao,  
 B. R. Brooks,  G. K. L. Chan,  D. M. Chipman,  C. J. Cramer,  
 W. A. Goddard III,  M. S. Gordon,  W. J. Hehre,  A. Klamt,  
 H. F. Schaefer III,  M. W. Schmidt,  C. D. Sherrill,  D. G. Truhlar,  
 A. Warshel,  X. Xu,  A. Aspuru-Guzik,  R. Baer,  A. T. Bell,  N. A. Besley,  
 J.-D. Chai,  A. Dreuw,  B. D. Dunietz,  T. R. Furlani,  S. R. Gwaltney,  
 C.-P. Hsu,  Y. Jung,  J. Kong,  D. S. Lambrecht,  W. Liang,  C. Ochsenfeld,  
 V. A. Rassolov,  L. V. Slipchenko,  J. E. Subotnik,  T. Van Voorhis,  
 J. M. Herbert,  A. I. Krylov,  P. M. W. Gill,  M. Head-Gordon

 Contributors to earlier versions of Q-Chem not listed above: 
 R. D. Adamson,  J. Baker,  E. F. C. Byrd,  A. K. Chakraborty,  C.-L. Cheng,  
 H. Dachsel,  R. J. Doerksen,  G. Hawkins,  A. Heyden,  S. Hirata,  
 G. Kedziora,  F. J. Keil,  C. Kelley,  P. P. Korambath,  W. Kurlancheek,  
 A. M. Lee,  M. S. Lee,  D. Liotard,  I. Lotan,  P. E. Maslen,  N. Nair,  
 D. Neuhauser,  R. Olson,  B. Peters,  J. Ritchie,  N. E. Schultz,  
 N. Shenvi,  A. C. Simmonett,  K. S. Thanthiriwatte,  Q. Wu,  W. Zhang

 Please cite Q-Chem as follows:
 Y. Shao et al., Mol. Phys. 113, 184-215 (2015)
 DOI: 10.1080/00268976.2014.952696

 Q-Chem 4.3.0 for Intel X86 Linux

 Parts of Q-Chem use Armadillo 5.200.1 (Boston Tea Smuggler).
 http://arma.sourceforge.net/

 Q-Chem begins on Wed Apr 26 12:47:29 2017  

Host: 
0

     Scratch files written to /tmp/kari_fsm_1.qcin//
 Oct1215 13750_ 19228  19214 4150   
 Parallel job on  1  processors
Processing $rem in /programs/x86_64/lib/qchem-4.3.2/config/preferences.
 MEM_TOTAL  2000 
 Now reading second FSM geometry

Checking the input file for inconsistencies... 	...done.
 In fsm_init()
 FSM_FNODE : 12
 FSM_NGRAD : 3
done with init

--------------------------------------------------------------
User input:
--------------------------------------------------------------
$molecule
-2  1
C    1.35512    0.24856    0.05375
O    2.27165    0.28205   -0.81892
O    1.34849    0.87446    1.16033
C    0.08172   -0.70564   -0.22505
C   -0.23234   -0.67952   -1.78702
O    0.25529   -1.95905    0.19710
C   -1.14986    0.04089    0.39636
O   -2.00650   -0.48389    1.10351
C   -1.35768    1.53048    0.03921
H   -0.54876    1.94551   -0.56627
H   -1.41925    2.09973    0.97462
H   -2.31621    1.63320   -0.49557
H   -1.08467   -1.35061   -1.97546
H    0.66593   -1.07579   -2.27135
H   -0.44210    0.31716   -2.21651
****
C    1.49359    0.18061   -0.37340
O    1.85107    1.30908    0.07644
O    1.98900   -0.46709   -1.33776
C    0.30764   -0.49664    0.37390
C   -1.25656    0.44853   -1.42479
O    0.56631   -1.31397    1.25524
C   -1.20491   -0.09795    0.04578
O   -2.09503   -1.08026    0.24898
C   -1.46406    1.13910    1.00013
H   -2.48418    1.50190    0.79401
H   -0.73990    1.95758    0.87164
H   -1.42839    0.78409    2.03853
H   -1.05833   -0.37419   -2.12310
H   -0.54175    1.26041   -1.62810
H   -2.28010    0.81304   -1.60264
$end



$rem
jobtype         fsm
fsm_ngrad       3
fsm_nnode       12
fsm_mode     2
fsm_opt_mode 2
method          b3lyp
basis           6-31+G(d)
--------------------------------------------------------------
 ----------------------------------------------------------------
             Standard Nuclear Orientation (Angstroms)
    I     Atom           X                Y                Z
 ----------------------------------------------------------------
    1      C       1.3551200000     0.2485600000     0.0537500000
    2      O       2.2716500000     0.2820500000    -0.8189200000
    3      O       1.3484900000     0.8744600000     1.1603300000
    4      C       0.0817200000    -0.7056400000    -0.2250500000
    5      C      -0.2323400000    -0.6795200000    -1.7870200000
    6      O       0.2552900000    -1.9590500000     0.1971000000
    7      C      -1.1498600000     0.0408900000     0.3963600000
    8      O      -2.0065000000    -0.4838900000     1.1035100000
    9      C      -1.3576800000     1.5304800000     0.0392100000
   10      H      -0.5487600000     1.9455100000    -0.5662700000
   11      H      -1.4192500000     2.0997300000     0.9746200000
   12      H      -2.3162100000     1.6332000000    -0.4955700000
   13      H      -1.0846700000    -1.3506100000    -1.9754600000
   14      H       0.6659300000    -1.0757900000    -2.2713500000
   15      H      -0.4421000000     0.3171600000    -2.2165100000
 ----------------------------------------------------------------
 Nuclear Repulsion Energy =   452.2596244979 hartrees
 There are       35 alpha and       35 beta electrons
 Requested basis set is 6-31+G(d)
 There are 57 shells and 183 basis functions

 Total QAlloc Memory Limit   2000 MB
 Mega-Array Size        61 MB
 MEM_STATIC part        62 MB

                       Distance Matrix (Angstroms)
             C (  1)   O (  2)   O (  3)   C (  4)   C (  5)   O (  6)
   O (  2)  1.265979
   O (  3)  1.271343  2.262875
   C (  4)  1.615480  2.474673  2.453711
   C (  5)  2.601883  2.851631  3.687919  1.593445
   O (  6)  2.470570  3.181279  3.186170  1.333932  2.410749
   C (  7)  2.536816  3.638928  2.742306  1.568517  2.475476  2.452328
   O (  8)  3.597078  4.752365  3.619986  2.484936  3.397216  2.848398
   C (  9)  3.000469  3.932811  3.001771  2.672441  3.079871  3.847521
   H ( 10)  2.624657  3.284150  2.779902  2.746367  2.912239  4.058918
   H ( 11)  3.460052  4.488150  3.032517  3.400326  4.093854  4.458959
   H ( 12)  3.962025  4.793602  4.092397  3.360569  3.370316  4.471763
   H ( 13)  3.553535  3.907435  4.550207  2.200088  1.101062  2.624063
   H ( 14)  2.763146  2.555703  4.005720  2.160013  1.094758  2.653680
   H ( 15)  2.896340  3.052692  3.862621  2.299222  1.105365  3.390132
             C (  7)   O (  8)   C (  9)   H ( 10)   H ( 11)   H ( 12)
   O (  8)  1.228531
   C (  9)  1.545841  2.368837
   H ( 10)  2.217105  3.288640  1.092340
   H ( 11)  2.155407  2.652653  1.096735  1.776479
   H ( 12)  2.165955  2.671151  1.102416  1.796223  1.784277
   H ( 13)  2.750646  3.328818  3.526203  3.624558  4.551897  3.551040
   H ( 14)  3.414783  4.345332  4.028192  3.675734  4.996821  4.402860
   H ( 15)  2.721092  3.756536  2.720056  2.320817  3.783608  2.864591
             H ( 13)   H ( 14)
   H ( 14)  1.796574
   H ( 15)  1.803457  1.780744
 
 A cutoff of  1.0D-11 yielded   1556 shell pairs
 There are     16749 function pairs
 
 -------------------------------------------------------
 OpenMP Integral Computing Module                       
 Release: version 1.0, May 2013, Q-Chem Inc. Pittsburgh 
 -------------------------------------------------------
 Integral Job Info:
 Integral job number is                      11
 Integral operator is                         1
 short-range coefficients                     0
 long-range coefficients              100000000
 Omega coefficients                           0
 if combine SR and LR in K                    0
 Integral screening is                        0
 Integral computing path is                   2
 max size of driver memory is            800000
 size of driver memory is                593474
 size of scratch memory is              2260544
 max col of scratch BK array               1296
 max len of scratch array in speh3          155
 max len of scratch index in speh4           18
 max int batch size is                      520
 min int batch size is                       52
 fixed nKL is                                52
 max L of basis functions is                  2
 order of int derivative is                   0
 number of shells is                         57
 number of basis is                         183
 number of cartesian basis is               183
 number of contracted shell pairs          1556
 number of primitive shell pairs           5351
 maxK2 (contraction) of shell pair           36
 max number of K2 of shell pair               1
 max number of CS2 of shell pair            200
 max number of PS2 of shell pair           1200
 mem total for path MDJ                   44296
 -------------------------------------------------------
 Smallest overlap matrix eigenvalue = 2.60E-05

 Scale SEOQF with 1.000000e-01/1.000000e-01/1.000000e-01

 Standard Electronic Orientation quadrupole field applied
 Nucleus-field energy     =     0.0000000032 hartrees
 Guess from superposition of atomic densities
 Warning:  Energy on first SCF cycle will be non-variational
 A restricted hybrid HF-DFT SCF calculation will be
 performed using Pulay DIIS extrapolation
 Exchange:     0.2000 Hartree-Fock + 0.0800 Slater + 0.7200 B88
 Correlation:  0.1900 VWN1RPA + 0.8100 LYP
 Using SG-1 standard quadrature grid
 SCF converges when DIIS error is below 1.0E-08
 CPU 0.00 s  wall 0.00 s
 Inaccurate integrated density:
   Number of electrons =    70
   Numerical integral  =    67.999861049387
   Relative error      =    -2.8573413580 %
 CPU 4.95 s  wall 4.95 s
 ---------------------------------------
  Cycle       Energy         DIIS Error
 ---------------------------------------
    1    -496.1499338240      4.83E-02
 CPU 0.00 s  wall 0.00 s
 CPU 5.49 s  wall 5.49 s
    2    -494.5647879847      1.07E-02
 CPU 0.00 s  wall 0.00 s
 CPU 5.49 s  wall 5.49 s
    3    -489.1804099094      2.84E-02
 CPU 0.00 s  wall 0.00 s
 CPU 5.50 s  wall 5.50 s
    4    -494.6258626210      9.78E-03
 CPU 0.00 s  wall 0.00 s
 CPU 5.46 s  wall 5.46 s
    5    -494.9610016213      2.70E-03
 CPU 0.00 s  wall 0.00 s
 CPU 5.45 s  wall 5.45 s
    6    -494.9905948272      1.71E-03
 CPU 0.00 s  wall 0.00 s
 CPU 5.42 s  wall 5.42 s
    7    -495.0001460737      6.54E-04
 CPU 0.00 s  wall 0.00 s
 CPU 5.37 s  wall 5.37 s
    8    -495.0012527712      3.39E-04
 CPU 0.00 s  wall 0.00 s
 CPU 5.34 s  wall 5.34 s
    9    -495.0016313237      7.12E-05
 CPU 0.00 s  wall 0.00 s
 CPU 5.24 s  wall 5.24 s
   10    -495.0016442842      3.75E-05
 CPU 0.00 s  wall 0.00 s
 CPU 5.19 s  wall 5.19 s
   11    -495.0016487889      1.17E-05
 CPU 0.00 s  wall 0.00 s
 CPU 5.15 s  wall 5.15 s
   12    -495.0016493106      4.20E-06
 CPU 0.00 s  wall 0.00 s
 CPU 5.08 s  wall 5.08 s
   13    -495.0016493782      1.01E-06
 CPU 0.00 s  wall 0.00 s
 CPU 5.01 s  wall 5.01 s
   14    -495.0016493811      2.57E-07
 CPU 0.00 s  wall 0.00 s
 CPU 4.83 s  wall 4.83 s
   15    -495.0016493823      1.14E-07
 CPU 0.00 s  wall 0.00 s
 CPU 4.63 s  wall 4.63 s
   16    -495.0016493820      2.67E-08
 CPU 0.00 s  wall 0.00 s
 CPU 4.46 s  wall 4.46 s
   17    -495.0016493814      1.09E-08
 CPU 0.00 s  wall 0.00 s
 CPU 4.06 s  wall 4.06 s
   18    -495.0016493818      2.09E-09 Convergence criterion met
 ---------------------------------------
 SCF time:  CPU 217.87 s  wall 217.31 s
 SCF   energy in the final basis set = -495.0016493818
 Total energy in the final basis set = -495.0016493818
 
 --------------------------------------------------------------
 
                    Orbital Energies (a.u.)
 --------------------------------------------------------------
 
 Alpha MOs
 -- Occupied --
-18.853 -18.778 -18.777 -18.731  -9.976  -9.948  -9.920  -9.915
 -9.883  -0.743  -0.697  -0.610  -0.602  -0.466  -0.412  -0.319
 -0.230  -0.183  -0.165  -0.151  -0.140  -0.126  -0.112  -0.094
 -0.079  -0.070  -0.060  -0.054  -0.025   0.039   0.058   0.069
  0.088   0.126   0.139
 -- Virtual --
  0.218   0.238   0.260   0.266   0.279   0.293   0.301   0.304
  0.307   0.320   0.328   0.337   0.345   0.352   0.360   0.374
  0.388   0.388   0.392   0.409   0.416   0.463   0.482   0.495
  0.503   0.511   0.512   0.527   0.540   0.554   0.555   0.563
  0.569   0.578   0.585   0.591   0.606   0.608   0.617   0.626
  0.633   0.651   0.656   0.661   0.664   0.674   0.680   0.718
  0.738   0.788   0.813   0.861   0.922   0.964   0.992   0.996
  1.037   1.050   1.067   1.083   1.126   1.142   1.152   1.183
  1.195   1.228   1.255   1.285   1.288   1.345   1.370   1.390
  1.409   1.436   1.443   1.486   1.543   1.580   1.592   1.616
  1.619   1.636   1.662   1.674   1.678   1.684   1.716   1.747
  1.756   1.776   1.791   1.832   1.897   1.913   1.938   1.962
  1.989   2.030   2.062   2.073   2.095   2.105   2.154   2.183
  2.189   2.209   2.226   2.254   2.290   2.304   2.319   2.353
  2.388   2.398   2.412   2.460   2.479   2.536   2.550   2.573
  2.628   2.636   2.662   2.697   2.749   2.793   2.852   2.909
  2.964   2.988   3.024   3.087   3.169   3.296   3.349   3.394
  3.454   3.509   3.583   4.455   4.529   4.605   4.627   4.754
  4.768   4.852   4.989   5.095
 --------------------------------------------------------------
 
          Ground-State Mulliken Net Atomic Charges

     Atom                 Charge (a.u.)
  ----------------------------------------
      1 C                     0.343415
      2 O                    -0.629460
      3 O                    -0.597475
      4 C                    -0.226627
      5 C                    -0.509862
      6 O                    -0.654596
      7 C                     0.297503
      8 O                    -0.479179
      9 C                    -0.682283
     10 H                     0.227030
     11 H                     0.202582
     12 H                     0.165500
     13 H                     0.171766
     14 H                     0.226054
     15 H                     0.145631
  ----------------------------------------
  Sum of atomic charges =    -2.000000

 -----------------------------------------------------------------
                    Cartesian Multipole Moments
 -----------------------------------------------------------------
    Charge (ESU x 10^10)
                -9.6064
    Dipole Moment (Debye)
         X      -5.3713      Y       4.4266      Z      -2.0498
       Tot       7.2559
    Quadrupole Moments (Debye-Ang)
        XX     -92.9692     XY      -5.6366     YY     -82.8666
        XZ       4.8762     YZ      -0.4960     ZZ     -76.4792
    Octopole Moments (Debye-Ang^2)
       XXX     -26.9510    XXY      -8.5044    XYY      -3.0552
       YYY      36.5752    XXZ       1.7962    XYZ      -6.0853
       YYZ       1.0008    XZZ      -3.0471    YZZ       4.4600
       ZZZ      28.8099
    Hexadecapole Moments (Debye-Ang^3)
      XXXX    -924.6186   XXXY     -22.5662   XXYY    -235.8474
      XYYY      19.5143   YYYY    -593.7131   XXXZ      91.4951
      XXYZ      -9.7829   XYYZ       5.8790   YYYZ     -35.0991
      XXZZ    -238.8300   XYZZ     -12.8195   YYZZ    -166.3863
      XZZZ      28.4157   YZZZ     -48.9607   ZZZZ    -507.8676
 -----------------------------------------------------------------
 beginning FSman 

*******************************************
*******************************************
******** Starting FSM Calculation *********
*******************************************
*******************************************
-FSM parameters:
Maximum displacement of each coordinate during optimization (Angstrom)      0.05
Maximum optimization steps for each new node                                3
The scaling factor for optimization (hartrees/Angstrom^2)                   1.75
The number of LST interpolations used for reparameterization                100
-Aligning product structure to maximum coincidence with the reactant structure
 Total R --> P Distance 5.265390New node interpolation distace (Angstroms): 0.44
-Performing force calculation on reactant structure in state:0
 ----------------------------------------------------------------
             Standard Nuclear Orientation (Angstroms)
    I     Atom           X                Y                Z
 ----------------------------------------------------------------
    1      C       1.6603892414     0.0673903112     0.4824987882
    2      O       2.5769144068     0.1008801345    -0.3901666085
    3      O       1.6537592764     0.6932870096     1.5890729510
    4      C       0.3869959586    -0.8868046554     0.2037002588
    5      C       0.0729376153    -0.8606847932    -1.3582615018
    6      O       0.5605650430    -2.1402080437     0.6258480320
    7      C      -0.8445775449    -0.1402785934     0.8251069809
    8      O      -1.7012130261    -0.6650558252     1.5322532507
    9      C      -1.0523964486     1.3493035491     0.4679588649
   10      H      -0.2434807156     1.7643313598    -0.1375179413
   11      H      -1.1139661238     1.9185505463     1.4033639306
   12      H      -2.0109213924     1.4520230072    -0.0668183142
   13      H      -0.7793878887    -1.5317712532    -1.5467005078
   14      H       0.9712028769    -1.2569527029    -1.8425889470
   15      H      -0.1368212783     0.1359899493    -1.7877492363
 ----------------------------------------------------------------
 Nuclear Repulsion Energy =   452.2620101676 hartrees
 There are       35 alpha and       35 beta electrons

                       Distance Matrix (Angstroms)
             C (  1)   O (  2)   O (  3)   C (  4)   C (  5)   O (  6)
   O (  2)  1.265972
   O (  3)  1.271337  2.262863
   C (  4)  1.615471  2.474660  2.453699
   C (  5)  2.601869  2.851616  3.687900  1.593436
   O (  6)  2.470557  3.181262  3.186153  1.333925  2.410737
   C (  7)  2.536802  3.638908  2.742291  1.568509  2.475463  2.452315
   O (  8)  3.597059  4.752339  3.619967  2.484923  3.397198  2.848383
   C (  9)  3.000453  3.932790  3.001755  2.672426  3.079855  3.847501
   H ( 10)  2.624643  3.284133  2.779887  2.746353  2.912223  4.058897
   H ( 11)  3.460034  4.488126  3.032501  3.400309  4.093833  4.458936
   H ( 12)  3.962004  4.793577  4.092376  3.360551  3.370298  4.471739
   H ( 13)  3.553517  3.907414  4.550183  2.200076  1.101056  2.624050
   H ( 14)  2.763131  2.555690  4.005699  2.160002  1.094752  2.653666
   H ( 15)  2.896325  3.052676  3.862601  2.299210  1.105359  3.390115
             C (  7)   O (  8)   C (  9)   H ( 10)   H ( 11)   H ( 12)
   O (  8)  1.228524
   C (  9)  1.545833  2.368824
   H ( 10)  2.217093  3.288623  1.092335
   H ( 11)  2.155395  2.652639  1.096730  1.776470
   H ( 12)  2.165944  2.671137  1.102410  1.796213  1.784268
   H ( 13)  2.750631  3.328801  3.526185  3.624539  4.551873  3.551022
   H ( 14)  3.414765  4.345309  4.028170  3.675715  4.996795  4.402837
   H ( 15)  2.721077  3.756516  2.720042  2.320805  3.783588  2.864576
             H ( 13)   H ( 14)
   H ( 14)  1.796564
   H ( 15)  1.803448  1.780734
 
 Applying Cartesian multipole field
    Component          Value
    ---------          -----
     (2,0,0)        1.00000E-11
     (0,2,0)        2.00000E-11
     (0,0,2)       -3.00000E-11
 Nucleus-field energy     =     0.0000000026 hartrees
 Requested basis set is 6-31+G(d)
 There are 57 shells and 183 basis functions
 A cutoff of  1.0D-11 yielded   1556 shell pairs
 There are     16749 function pairs
 Smallest overlap matrix eigenvalue = 2.60E-05
 Guess from superposition of atomic densities
 Warning:  Energy on first SCF cycle will be non-variational
 A restricted hybrid HF-DFT SCF calculation will be
 performed using Pulay DIIS extrapolation
 Exchange:     0.2000 Hartree-Fock + 0.0800 Slater + 0.7200 B88
 Correlation:  0.1900 VWN1RPA + 0.8100 LYP
 Using SG-1 standard quadrature grid
 SCF converges when DIIS error is below 1.0E-08
 CPU 0.00 s  wall 0.00 s
 Inaccurate integrated density:
   Number of electrons =    70
   Numerical integral  =    67.999861105838
   Relative error      =    -2.8573412774 %
 CPU 4.91 s  wall 4.91 s
 ---------------------------------------
  Cycle       Energy         DIIS Error
 ---------------------------------------
    1    -496.1500250607      4.84E-02
 CPU 0.00 s  wall 0.00 s
 CPU 5.52 s  wall 5.52 s
    2    -494.5647872701      1.07E-02
 CPU 0.00 s  wall 0.00 s
 CPU 5.52 s  wall 5.52 s
    3    -489.1803612133      2.84E-02
 CPU 0.00 s  wall 0.00 s
 CPU 5.52 s  wall 5.52 s
    4    -494.6258722689      9.78E-03
 CPU 0.00 s  wall 0.00 s
 CPU 5.47 s  wall 5.47 s
    5    -494.9610059982      2.70E-03
 CPU 0.00 s  wall 0.00 s
 CPU 5.45 s  wall 5.45 s
    6    -494.9905950016      1.71E-03
 CPU 0.00 s  wall 0.00 s
 CPU 5.42 s  wall 5.42 s
    7    -495.0001461525      6.54E-04
 CPU 0.00 s  wall 0.00 s
 CPU 5.36 s  wall 5.36 s
    8    -495.0012527869      3.39E-04
 CPU 0.00 s  wall 0.00 s
 CPU 5.34 s  wall 5.34 s
    9    -495.0016313243      7.12E-05
 CPU 0.00 s  wall 0.00 s
 CPU 5.26 s  wall 5.26 s
   10    -495.0016442846      3.75E-05
 CPU 0.00 s  wall 0.00 s
 CPU 5.23 s  wall 5.23 s
   11    -495.0016487892      1.17E-05
 CPU 0.00 s  wall 0.00 s
 CPU 5.19 s  wall 5.19 s
   12    -495.0016493108      4.20E-06
 CPU 0.00 s  wall 0.00 s
 CPU 5.10 s  wall 5.10 s
   13    -495.0016493784      1.01E-06
 CPU 0.00 s  wall 0.00 s
 CPU 5.01 s  wall 5.01 s
   14    -495.0016493814      2.57E-07
 CPU 0.00 s  wall 0.00 s
 CPU 4.82 s  wall 4.82 s
   15    -495.0016493826      1.14E-07
 CPU 0.00 s  wall 0.00 s
 CPU 4.66 s  wall 4.66 s
   16    -495.0016493822      2.67E-08
 CPU 0.00 s  wall 0.00 s
 CPU 4.46 s  wall 4.46 s
   17    -495.0016493817      1.09E-08
 CPU 0.00 s  wall 0.00 s
 CPU 4.06 s  wall 4.06 s
   18    -495.0016493820      2.09E-09 Convergence criterion met
 ---------------------------------------
 SCF time:  CPU 218.24 s  wall 217.54 s
 SCF   energy in the final basis set = -495.0016493820
 Total energy in the final basis set = -495.0016493820
 
 --------------------------------------------------------------
 
                    Orbital Energies (a.u.)
 --------------------------------------------------------------
 
 Alpha MOs
 -- Occupied --
-18.853 -18.778 -18.777 -18.731  -9.976  -9.948  -9.920  -9.915
 -9.883  -0.743  -0.697  -0.610  -0.602  -0.466  -0.412  -0.319
 -0.230  -0.183  -0.165  -0.151  -0.140  -0.126  -0.112  -0.094
 -0.079  -0.070  -0.060  -0.054  -0.025   0.039   0.058   0.069
  0.088   0.126   0.139
 -- Virtual --
  0.218   0.238   0.260   0.266   0.279   0.293   0.301   0.304
  0.307   0.320   0.328   0.337   0.345   0.352   0.360   0.374
  0.388   0.388   0.392   0.409   0.416   0.463   0.482   0.495
  0.503   0.511   0.512   0.527   0.540   0.554   0.555   0.563
  0.569   0.578   0.585   0.591   0.606   0.608   0.617   0.626
  0.633   0.651   0.656   0.661   0.664   0.674   0.680   0.718
  0.738   0.788   0.813   0.861   0.922   0.964   0.992   0.996
  1.037   1.050   1.067   1.083   1.126   1.142   1.152   1.183
  1.195   1.228   1.255   1.285   1.288   1.345   1.370   1.390
  1.409   1.436   1.443   1.486   1.543   1.580   1.592   1.616
  1.619   1.636   1.662   1.674   1.678   1.684   1.716   1.747
  1.756   1.776   1.791   1.832   1.897   1.913   1.938   1.962
  1.990   2.030   2.062   2.073   2.095   2.105   2.154   2.183
  2.189   2.209   2.226   2.254   2.290   2.304   2.319   2.353
  2.388   2.398   2.412   2.460   2.479   2.536   2.550   2.573
  2.628   2.636   2.662   2.697   2.749   2.793   2.852   2.909
  2.964   2.988   3.024   3.087   3.169   3.296   3.349   3.394
  3.454   3.509   3.583   4.455   4.529   4.605   4.627   4.754
  4.768   4.852   4.989   5.095
 --------------------------------------------------------------
 
          Ground-State Mulliken Net Atomic Charges

     Atom                 Charge (a.u.)
  ----------------------------------------
      1 C                     0.343426
      2 O                    -0.629460
      3 O                    -0.597475
      4 C                    -0.226671
      5 C                    -0.509843
      6 O                    -0.654596
      7 C                     0.297513
      8 O                    -0.479180
      9 C                    -0.682283
     10 H                     0.227030
     11 H                     0.202583
     12 H                     0.165501
     13 H                     0.171767
     14 H                     0.226055
     15 H                     0.145633
  ----------------------------------------
  Sum of atomic charges =    -2.000000

 -----------------------------------------------------------------
                    Cartesian Multipole Moments
 -----------------------------------------------------------------
    Charge (ESU x 10^10)
                -9.6064
    Dipole Moment (Debye)
         X      -8.3039      Y       6.1670      Z      -6.1685
       Tot      12.0431
    Quadrupole Moments (Debye-Ang)
        XX     -97.1435     XY      -2.7808     YY     -84.7856
        XZ       0.6901     YZ       2.5194     ZZ     -80.0027
    Octopole Moments (Debye-Ang^2)
       XXX    -113.8693    XXY       6.0661    XYY     -27.0721
       YYY      82.1061    XXZ     -37.0679    XYZ      -8.1989
       YYZ     -35.2384    XZZ     -24.2761    YZZ      19.3423
       ZZZ     -71.4486
    Hexadecapole Moments (Debye-Ang^3)
      XXXX   -1010.1979   XXXY     -11.1748   XXYY    -244.4428
      XYYY      45.7165   YYYY    -636.6474   XXXZ      45.6224
      XXYZ     -11.7738   XYYZ      -3.0234   YYYZ      -0.4764
      XXZZ    -261.7435   XYZZ     -13.1954   YYZZ    -185.1423
      XZZZ       4.9502   YZZZ     -30.2040   ZZZZ    -543.7787
 -----------------------------------------------------------------
 Calculating analytic gradient of the SCF energy
 CPU 0.00 s  wall 0.00 s
 CPU 8.53 s  wall 8.53 s
 Gradient of SCF Energy
            1           2           3           4           5           6
    1   0.0000296  -0.0000154   0.0000035  -0.0000007  -0.0000211   0.0000031
    2  -0.0000155  -0.0000106   0.0000088  -0.0000156  -0.0000556   0.0000391
    3   0.0000572   0.0000133  -0.0000068  -0.0001765   0.0001305  -0.0000006
            7           8           9          10          11          12
    1  -0.0000369  -0.0000047   0.0000616  -0.0000082  -0.0000124  -0.0000098
    2  -0.0000401   0.0000202   0.0000676  -0.0000115  -0.0000014   0.0000047
    3   0.0000578  -0.0000129  -0.0000263   0.0000182  -0.0000040   0.0000124
           13          14          15
    1  -0.0000102   0.0000052   0.0000164
    2   0.0000161  -0.0000016  -0.0000047
    3  -0.0000188  -0.0000314  -0.0000121
 Max gradient component =       1.765E-04
 RMS gradient           =       4.154E-05
 Gradient time:  CPU 67.01 s  wall 67.07 s
the nuclear gradient is: 
0.0000559 -0.0000293 0.0001082
-0.0000290 -0.0000200 0.0000251
0.0000066 0.0000166 -0.0000128
-0.0000013 -0.0000295 -0.0003336
-0.0000398 -0.0001050 0.0002466
0.0000058 0.0000739 -0.0000012
-0.0000698 -0.0000758 0.0001091
-0.0000088 0.0000381 -0.0000243
0.0001164 0.0001278 -0.0000497
-0.0000155 -0.0000217 0.0000344
-0.0000233 -0.0000026 -0.0000076
-0.0000185 0.0000090 0.0000234
-0.0000193 0.0000304 -0.0000355
0.0000098 -0.0000030 -0.0000593
0.0000310 -0.0000088 -0.0000229
-Performing force calculation on product structure in state0
 ----------------------------------------------------------------
             Standard Nuclear Orientation (Angstroms)
    I     Atom           X                Y                Z
 ----------------------------------------------------------------
    1      C       1.9313914633    -0.3911104662     0.6480799027
    2      O       2.3709263612     0.7961232166     0.6774202341
    3      O       2.5467653927    -1.4425679075     0.3154060123
    4      C       0.4526617828    -0.5724860403     1.0997856911
    5      C      -0.2224009189    -0.5155620379    -1.3733366921
    6      O       0.2359272567    -0.8861814118     2.2686758075
    7      C      -0.7543513006    -0.3014192588     0.0878374610
    8      O      -1.8574531523    -1.0237821695     0.3325330802
    9      C      -1.0179589739     1.2514677264     0.2529492154
   10      H      -1.8159790351     1.5240300597    -0.4567091881
   11      H      -0.1277432131     1.8735868632     0.0760373705
   12      H      -1.3874928174     1.4298557758     1.2713738482
   13      H      -0.0033293950    -1.5797889312    -1.5257055683
   14      H       0.6810594434     0.0657574947    -1.6126098014
   15      H      -1.0320228940    -0.2279229132    -2.0617373731
 ----------------------------------------------------------------
 Nuclear Repulsion Energy =   446.9161525266 hartrees
 There are       35 alpha and       35 beta electrons

                       Distance Matrix (Angstroms)
             C (  1)   O (  2)   O (  3)   C (  4)   C (  5)   O (  6)
   O (  2)  1.266324
   O (  3)  1.262901  2.274579
   C (  4)  1.556784  2.393997  2.399492
   C (  5)  2.956423  3.556890  3.373348  2.564232
   O (  6)  2.397087  3.149677  3.076492  1.229505  3.689401
   C (  7)  2.745019  3.364457  3.500197  1.598248  1.569668  2.465493
   O (  8)  3.854243  4.616297  4.424118  2.475677  2.416956  2.854790
   C (  9)  3.398950  3.445585  4.468667  2.491318  2.529844  3.194515
   H ( 10)  4.350989  4.398440  5.332017  3.459015  2.745839  4.176980
   H ( 11)  3.113860  2.786743  4.266987  2.714443  2.796011  3.543479
   H ( 12)  3.836588  3.857475  4.964180  2.724882  3.483760  2.999022
   H ( 13)  3.143477  4.016941  3.148254  2.848823  1.097172  3.864669
   H ( 14)  2.623505  2.938251  3.077848  2.795820  1.100647  4.021033
   H ( 15)  4.018901  4.486838  4.464739  3.509735  1.100963  4.559987
             C (  7)   O (  8)   C (  9)   H ( 10)   H ( 11)   H ( 12)
   O (  8)  1.341088
   C (  9)  1.583733  2.426488
   H ( 10)  2.180791  2.667578  1.102153
   H ( 11)  2.263499  3.384144  1.100370  1.804480
   H ( 12)  2.190648  2.668824  1.097983  1.782902  1.792399
   H ( 13)  2.191297  2.683276  3.494152  3.749953  3.808788  4.335611
   H ( 14)  2.255381  3.378568  2.787989  3.114140  2.602679  3.802241
   H ( 15)  2.168681  2.654667  2.747102  2.502008  3.131157  3.739548
             H ( 13)   H ( 14)
   H ( 14)  1.784310
   H ( 15)  1.781315  1.795164
 
 Applying Cartesian multipole field
    Component          Value
    ---------          -----
     (2,0,0)        1.00000E-11
     (0,2,0)        2.00000E-11
     (0,0,2)       -3.00000E-11
 Nucleus-field energy     =     0.0000000018 hartrees
 Requested basis set is 6-31+G(d)
 There are 57 shells and 183 basis functions
 A cutoff of  1.0D-11 yielded   1543 shell pairs
 There are     16535 function pairs
 Smallest overlap matrix eigenvalue = 2.44E-05
 Guess from superposition of atomic densities
 Warning:  Energy on first SCF cycle will be non-variational
 A restricted hybrid HF-DFT SCF calculation will be
 performed using Pulay DIIS extrapolation
 Exchange:     0.2000 Hartree-Fock + 0.0800 Slater + 0.7200 B88
 Correlation:  0.1900 VWN1RPA + 0.8100 LYP
 Using SG-1 standard quadrature grid
 SCF converges when DIIS error is below 1.0E-08
 CPU 0.00 s  wall 0.00 s
 Inaccurate integrated density:
   Number of electrons =    70
   Numerical integral  =    67.999791827532
   Relative error      =    -2.8574402464 %
 CPU 4.85 s  wall 4.85 s
 ---------------------------------------
  Cycle       Energy         DIIS Error
 ---------------------------------------
    1    -496.1533641345      4.84E-02
 CPU 0.00 s  wall 0.00 s
 CPU 5.43 s  wall 5.43 s
    2    -494.5892511557      1.07E-02
 CPU 0.00 s  wall 0.00 s
 CPU 5.42 s  wall 5.42 s
    3    -489.6929221841      2.73E-02
 CPU 0.00 s  wall 0.00 s
 CPU 5.41 s  wall 5.41 s
    4    -494.6246732632      1.01E-02
 CPU 0.00 s  wall 0.00 s
 CPU 5.38 s  wall 5.38 s
    5    -494.9621738001      3.43E-03
 CPU 0.00 s  wall 0.00 s
 CPU 5.40 s  wall 5.40 s
    6    -495.0079146317      1.67E-03
 CPU 0.00 s  wall 0.00 s
 CPU 5.37 s  wall 5.37 s
    7    -495.0165537046      7.45E-04
 CPU 0.00 s  wall 0.00 s
 CPU 5.31 s  wall 5.31 s
    8    -495.0177784516      4.40E-04
 CPU 0.00 s  wall 0.00 s
 CPU 5.28 s  wall 5.28 s
    9    -495.0184342614      5.49E-05
 CPU 0.00 s  wall 0.00 s
 CPU 5.17 s  wall 5.17 s
   10    -495.0184412213      3.01E-05
 CPU 0.00 s  wall 0.00 s
 CPU 5.12 s  wall 5.12 s
   11    -495.0184442951      9.16E-06
 CPU 0.00 s  wall 0.00 s
 CPU 5.05 s  wall 5.05 s
   12    -495.0184445527      4.93E-06
 CPU 0.00 s  wall 0.00 s
 CPU 5.00 s  wall 5.00 s
   13    -495.0184446330      1.48E-06
 CPU 0.00 s  wall 0.00 s
 CPU 4.94 s  wall 4.94 s
   14    -495.0184446410      4.63E-07
 CPU 0.00 s  wall 0.00 s
 CPU 4.83 s  wall 4.83 s
   15    -495.0184446419      9.39E-08
 CPU 0.00 s  wall 0.00 s
 CPU 4.66 s  wall 4.66 s
   16    -495.0184446411      3.03E-08
 CPU 0.00 s  wall 0.00 s
 CPU 4.35 s  wall 4.35 s
   17    -495.0184446413      1.18E-08
 CPU 0.00 s  wall 0.00 s
 CPU 4.11 s  wall 4.11 s
   18    -495.0184446410      3.09E-09 Convergence criterion met
 ---------------------------------------
 SCF time:  CPU 213.35 s  wall 212.80 s
 SCF   energy in the final basis set = -495.0184446410
 Total energy in the final basis set = -495.0184446410
 
 --------------------------------------------------------------
 
                    Orbital Energies (a.u.)
 --------------------------------------------------------------
 
 Alpha MOs
 -- Occupied --
-18.842 -18.806 -18.805 -18.742  -9.976  -9.960  -9.932  -9.892
 -9.888  -0.740  -0.714  -0.640  -0.616  -0.449  -0.396  -0.336
 -0.249  -0.176  -0.155  -0.144  -0.133  -0.125  -0.114  -0.107
 -0.089  -0.072  -0.066  -0.046  -0.033   0.008   0.042   0.057
  0.073   0.113   0.122
 -- Virtual --
  0.232   0.240   0.268   0.282   0.285   0.290   0.299   0.304
  0.305   0.311   0.329   0.342   0.344   0.348   0.353   0.361
  0.372   0.387   0.401   0.407   0.429   0.467   0.475   0.484
  0.492   0.502   0.523   0.525   0.530   0.540   0.546   0.555
  0.561   0.571   0.576   0.588   0.594   0.599   0.603   0.612
  0.616   0.631   0.647   0.656   0.663   0.680   0.693   0.720
  0.743   0.784   0.808   0.824   0.931   0.952   0.980   0.999
  1.026   1.055   1.087   1.094   1.102   1.120   1.148   1.164
  1.173   1.218   1.250   1.274   1.288   1.300   1.329   1.382
  1.391   1.440   1.463   1.510   1.525   1.555   1.600   1.605
  1.629   1.635   1.650   1.655   1.672   1.694   1.715   1.736
  1.754   1.781   1.797   1.845   1.885   1.901   1.928   1.949
  1.976   2.007   2.048   2.072   2.123   2.136   2.150   2.157
  2.185   2.215   2.218   2.245   2.251   2.288   2.306   2.321
  2.362   2.380   2.407   2.469   2.481   2.500   2.554   2.560
  2.579   2.589   2.641   2.716   2.732   2.800   2.827   2.890
  2.964   3.017   3.046   3.107   3.162   3.211   3.344   3.385
  3.426   3.460   3.525   4.470   4.552   4.619   4.651   4.672
  4.757   4.783   4.908   5.060
 --------------------------------------------------------------
 
          Ground-State Mulliken Net Atomic Charges

     Atom                 Charge (a.u.)
  ----------------------------------------
      1 C                     0.187255
      2 O                    -0.589707
      3 O                    -0.595685
      4 C                     0.391116
      5 C                    -0.625296
      6 O                    -0.469181
      7 C                    -0.126793
      8 O                    -0.663846
      9 C                    -0.611418
     10 H                     0.159932
     11 H                     0.202666
     12 H                     0.191871
     13 H                     0.201619
     14 H                     0.187824
     15 H                     0.159644
  ----------------------------------------
  Sum of atomic charges =    -2.000000

 -----------------------------------------------------------------
                    Cartesian Multipole Moments
 -----------------------------------------------------------------
    Charge (ESU x 10^10)
                -9.6064
    Dipole Moment (Debye)
         X      -3.8762      Y       5.4513      Z      -5.8522
       Tot       8.8877
    Quadrupole Moments (Debye-Ang)
        XX    -110.5593     XY      -2.0569     YY     -78.3295
        XZ      -3.3684     YZ       3.7446     ZZ     -75.9043
    Octopole Moments (Debye-Ang^2)
       XXX    -112.7172    XXY      42.6106    XYY     -27.9881
       YYY      55.8208    XXZ     -39.9802    XYZ      -3.5659
       YYZ     -30.5841    XZZ     -19.9857    YZZ      28.6752
       ZZZ     -86.5456
    Hexadecapole Moments (Debye-Ang^3)
      XXXX   -1287.3844   XXXY      60.3433   XXYY    -314.1012
      XYYY      69.8941   YYYY    -460.4704   XXXZ     -98.8061
      XXYZ       8.6915   XYYZ     -32.0467   YYYZ      31.4737
      XXZZ    -251.2943   XYZZ      12.2556   YYZZ    -165.0248
      XZZZ     -80.3242   YZZZ      50.3864   ZZZZ    -580.8850
 -----------------------------------------------------------------
 Calculating analytic gradient of the SCF energy
 CPU 0.00 s  wall 0.00 s
 CPU 8.37 s  wall 8.37 s
 Gradient of SCF Energy
            1           2           3           4           5           6
    1  -0.0001680  -0.0000070   0.0001558  -0.0000870   0.0002011   0.0000896
    2   0.0000976  -0.0000449  -0.0000043  -0.0001091   0.0000921   0.0000218
    3   0.0000404   0.0000217  -0.0000036  -0.0000459  -0.0001136  -0.0001029
            7           8           9          10          11          12
    1   0.0000156  -0.0000191  -0.0000959   0.0000064   0.0000074   0.0000584
    2   0.0001368  -0.0001216   0.0001187  -0.0000165  -0.0001180  -0.0000431
    3   0.0001343   0.0001438   0.0000262   0.0000536  -0.0002558   0.0000390
           13          14          15
    1  -0.0000692  -0.0000904   0.0000023
    2  -0.0000335   0.0000701  -0.0000461
    3  -0.0001406   0.0001958   0.0000075
 Max gradient component =       2.558E-04
 RMS gradient           =       9.822E-05
 Gradient time:  CPU 65.60 s  wall 65.63 s
the nuclear gradient is: 
-0.0003174 0.0001844 0.0000764
-0.0000133 -0.0000848 0.0000409
0.0002943 -0.0000080 -0.0000069
-0.0001644 -0.0002061 -0.0000867
0.0003801 0.0001740 -0.0002146
0.0001694 0.0000411 -0.0001945
0.0000295 0.0002586 0.0002538
-0.0000360 -0.0002297 0.0002718
-0.0001813 0.0002242 0.0000496
0.0000122 -0.0000312 0.0001013
0.0000139 -0.0002230 -0.0004833
0.0001103 -0.0000814 0.0000736
-0.0001308 -0.0000634 -0.0002656
-0.0001708 0.0001325 0.0003700
0.0000044 -0.0000871 0.0000141

STARTING ITERATION 1
The distance between the innermost nodes (Angstroms): 5.265
-Adding two new nodes
The distance between the previous and current R_nodes (Angstroms): 0.4523
The distance between the previous and current P_nodes (Angstroms): 0.4554
-Optimizing new reactant side node
Using BFGS, step: 2 E_tol 0.0168
max_steps 3 node_spacing 0.4388 sigma 0.7000
Calling calcGrad
coords address 0x1afdd5e0 grads address 0x1afdd8e0
 ----------------------------------------------------------------
             Standard Nuclear Orientation (Angstroms)
    I     Atom           X                Y                Z
 ----------------------------------------------------------------
    1      C       1.7006324619     0.0378789189     0.4948151110
    2      O       2.6027585092     0.1522048394    -0.3785870657
    3      O       1.7742576563     0.5594582467     1.6456530013
    4      C       0.4290942971    -0.8997882119     0.2902938898
    5      C       0.0303201406    -0.8213981925    -1.3670873641
    6      O       0.5823262766    -2.1076782490     0.7984822983
    7      C      -0.8597398500    -0.1552513262     0.7333599129
    8      O      -1.7490065838    -0.7100009797     1.4032914865
    9      C      -1.0526950146     1.3416863940     0.4339057610
   10      H      -0.3410583846     1.7900551216    -0.2622424743
   11      H      -1.0006264992     1.9172008676     1.3659396007
   12      H      -2.0652300061     1.4604640608     0.0176521174
   13      H      -0.7500789624    -1.5772614088    -1.5375274868
   14      H       0.9581263983    -1.1478228727    -1.8502174819
   15      H      -0.2720012904     0.1236635524    -1.8503840375
 ----------------------------------------------------------------
 Nuclear Repulsion Energy =   450.3376780987 hartrees
 There are       35 alpha and       35 beta electrons

                       Distance Matrix (Angstroms)
             C (  1)   O (  2)   O (  3)   C (  4)   C (  5)   O (  6)
   O (  2)  1.260846
   O (  3)  1.265659  2.224818
   C (  4)  1.593066  2.505775  2.403303
   C (  5)  2.644803  2.922751  3.744955  1.706481
   O (  6)  2.438491  3.251878  3.041713  1.319369  2.578550
   C (  7)  2.578703  3.649637  2.877678  1.552977  2.376518  2.428120
   O (  8)  3.644813  4.780831  3.752820  2.453346  3.294452  2.784674
   C (  9)  3.047037  3.929040  3.173622  2.690824  3.015864  3.834622
   H ( 10)  2.794952  3.370778  3.103062  2.851962  2.859771  4.143682
   H ( 11)  3.404043  4.375268  3.101884  3.337146  4.004024  4.362041
   H ( 12)  4.053783  4.864017  4.266599  3.444819  3.393483  4.511196
   H ( 13)  3.570025  3.946608  4.590260  2.278234  1.099728  2.741092
   H ( 14)  2.730638  2.561363  3.975172  2.218825  1.095807  2.842210
   H ( 15)  3.065714  3.229744  4.074232  2.474165  1.103683  3.567247
             C (  7)   O (  8)   C (  9)   H ( 10)   H ( 11)   H ( 12)
   O (  8)  1.243926
   C (  9)  1.538742  2.373601
   H ( 10)  2.245990  3.317620  1.091826
   H ( 11)  2.171420  2.731970  1.096638  1.761299
   H ( 12)  2.139154  2.594400  1.101182  1.777565  1.777602
   H ( 13)  2.681617  3.224657  3.535305  3.623875  4.550183  3.657319
   H ( 14)  3.311300  4.255065  3.931702  3.583388  4.855384  4.408263
   H ( 15)  2.664388  3.669189  2.703894  2.303003  3.753986  2.914149
             H ( 13)   H ( 14)
   H ( 14)  1.788899
   H ( 15)  1.794320  1.769150
 
 Applying Cartesian multipole field
    Component          Value
    ---------          -----
     (2,0,0)        1.00000E-11
     (0,2,0)        2.00000E-11
     (0,0,2)       -3.00000E-11
 Nucleus-field energy     =     0.0000000027 hartrees
 Requested basis set is 6-31+G(d)
 There are 57 shells and 183 basis functions
 A cutoff of  1.0D-11 yielded   1556 shell pairs
 There are     16750 function pairs
 Smallest overlap matrix eigenvalue = 2.49E-05
 Guess from superposition of atomic densities
 Warning:  Energy on first SCF cycle will be non-variational
 A restricted hybrid HF-DFT SCF calculation will be
 performed using Pulay DIIS extrapolation
 Exchange:     0.2000 Hartree-Fock + 0.0800 Slater + 0.7200 B88
 Correlation:  0.1900 VWN1RPA + 0.8100 LYP
 Using SG-1 standard quadrature grid
 SCF converges when DIIS error is below 1.0E-08
 CPU 0.00 s  wall 0.00 s
 Inaccurate integrated density:
   Number of electrons =    70
   Numerical integral  =    68.000583029514
   Relative error      =    -2.8563099578 %
 CPU 4.90 s  wall 4.90 s
 ---------------------------------------
  Cycle       Energy         DIIS Error
 ---------------------------------------
    1    -496.1150917563      4.81E-02
 CPU 0.00 s  wall 0.00 s
 CPU 5.49 s  wall 5.49 s
    2    -494.5592783600      1.07E-02
 CPU 0.00 s  wall 0.00 s
 CPU 5.50 s  wall 5.50 s
    3    -487.8755850428      3.13E-02
 CPU 0.00 s  wall 0.00 s
 CPU 5.51 s  wall 5.51 s
    4    -494.6546955853      8.94E-03
 CPU 0.00 s  wall 0.00 s
 CPU 5.47 s  wall 5.47 s
    5    -494.9660917833      2.05E-03
 CPU 0.00 s  wall 0.00 s
 CPU 5.45 s  wall 5.45 s
    6    -494.9751260564      2.15E-03
 CPU 0.00 s  wall 0.00 s
 CPU 5.42 s  wall 5.42 s
    7    -494.9900187770      6.18E-04
 CPU 0.00 s  wall 0.00 s
 CPU 5.36 s  wall 5.36 s
    8    -494.9908162070      3.62E-04
 CPU 0.00 s  wall 0.00 s
 CPU 5.34 s  wall 5.34 s
    9    -494.9912719585      7.38E-05
 CPU 0.00 s  wall 0.00 s
 CPU 5.27 s  wall 5.27 s
   10    -494.9912882806      3.19E-05
 CPU 0.00 s  wall 0.00 s
 CPU 5.22 s  wall 5.22 s
   11    -494.9912913281      1.38E-05
 CPU 0.00 s  wall 0.00 s
 CPU 5.15 s  wall 5.15 s
   12    -494.9912919609      3.55E-06
 CPU 0.00 s  wall 0.00 s
 CPU 5.10 s  wall 5.10 s
   13    -494.9912920176      9.25E-07
 CPU 0.00 s  wall 0.00 s
 CPU 4.97 s  wall 4.97 s
   14    -494.9912920210      2.39E-07
 CPU 0.00 s  wall 0.00 s
 CPU 4.87 s  wall 4.87 s
   15    -494.9912920202      7.49E-08
 CPU 0.00 s  wall 0.00 s
 CPU 4.68 s  wall 4.68 s
   16    -494.9912920204      2.07E-08
 CPU 0.00 s  wall 0.00 s
 CPU 4.28 s  wall 4.28 s
   17    -494.9912920211      9.32E-09 Convergence criterion met
 ---------------------------------------
 SCF time:  CPU 207.79 s  wall 207.31 s
 SCF   energy in the final basis set = -494.9912920211
 Total energy in the final basis set = -494.9912920211
 
 --------------------------------------------------------------
 
                    Orbital Energies (a.u.)
 --------------------------------------------------------------
 
 Alpha MOs
 -- Occupied --
-18.849 -18.777 -18.770 -18.744  -9.976  -9.947  -9.926  -9.924
 -9.887  -0.733  -0.699  -0.614  -0.605  -0.470  -0.410  -0.324
 -0.236  -0.187  -0.167  -0.152  -0.136  -0.123  -0.111  -0.091
 -0.081  -0.067  -0.062  -0.047  -0.028   0.038   0.055   0.072
  0.095   0.118   0.129
 -- Virtual --
  0.216   0.237   0.259   0.265   0.279   0.293   0.302   0.304
  0.307   0.317   0.331   0.339   0.346   0.351   0.358   0.371
  0.384   0.388   0.392   0.410   0.414   0.459   0.477   0.484
  0.491   0.508   0.517   0.528   0.536   0.539   0.554   0.566
  0.570   0.573   0.585   0.595   0.603   0.610   0.616   0.628
  0.631   0.647   0.652   0.663   0.668   0.675   0.679   0.725
  0.753   0.797   0.817   0.856   0.923   0.959   0.971   1.004
  1.028   1.044   1.074   1.083   1.118   1.143   1.161   1.173
  1.191   1.237   1.248   1.276   1.297   1.330   1.380   1.381
  1.414   1.428   1.447   1.497   1.548   1.570   1.584   1.612
  1.634   1.641   1.655   1.671   1.683   1.692   1.705   1.740
  1.753   1.770   1.791   1.833   1.890   1.914   1.938   1.951
  1.972   2.039   2.047   2.055   2.078   2.097   2.144   2.168
  2.189   2.206   2.245   2.256   2.275   2.302   2.322   2.343
  2.375   2.395   2.418   2.453   2.480   2.515   2.542   2.577
  2.619   2.626   2.668   2.713   2.751   2.780   2.839   2.906
  2.944   2.998   3.003   3.086   3.187   3.288   3.362   3.402
  3.471   3.496   3.571   4.456   4.536   4.571   4.642   4.725
  4.784   4.874   4.965   5.095
 --------------------------------------------------------------
 
          Ground-State Mulliken Net Atomic Charges

     Atom                 Charge (a.u.)
  ----------------------------------------
      1 C                     0.310096
      2 O                    -0.628968
      3 O                    -0.593289
      4 C                    -0.075220
      5 C                    -0.635519
      6 O                    -0.641009
      7 C                     0.301557
      8 O                    -0.481273
      9 C                    -0.707234
     10 H                     0.216988
     11 H                     0.211668
     12 H                     0.169291
     13 H                     0.177782
     14 H                     0.223945
     15 H                     0.151187
  ----------------------------------------
  Sum of atomic charges =    -2.000000

 -----------------------------------------------------------------
                    Cartesian Multipole Moments
 -----------------------------------------------------------------
    Charge (ESU x 10^10)
                -9.6064
    Dipole Moment (Debye)
         X      -8.4764      Y       6.2184      Z      -6.3177
       Tot      12.2650
    Quadrupole Moments (Debye-Ang)
        XX     -99.3563     XY      -3.4942     YY     -82.4385
        XZ      -0.6281     YZ       3.4679     ZZ     -81.4491
    Octopole Moments (Debye-Ang^2)
       XXX    -117.8118    XXY       6.9687    XYY     -26.8236
       YYY      82.0417    XXZ     -39.6395    XYZ      -7.1702
       YYZ     -35.4570    XZZ     -29.1715    YZZ      23.0468
       ZZZ     -70.2675
    Hexadecapole Moments (Debye-Ang^3)
      XXXX   -1062.3413   XXXY     -18.6540   XXYY    -245.5902
      XYYY      43.1065   YYYY    -604.5780   XXXZ      24.2785
      XXYZ      -6.1655   XYYZ      -7.7643   YYYZ      16.7193
      XXZZ    -273.3812   XYZZ     -11.8171   YYZZ    -185.1681
      XZZZ     -19.5083   YZZZ     -20.0769   ZZZZ    -557.9599
 -----------------------------------------------------------------
 Calculating analytic gradient of the SCF energy
 CPU 0.00 s  wall 0.00 s
 CPU 8.50 s  wall 8.50 s
 Gradient of SCF Energy
            1           2           3           4           5           6
    1  -0.0076562   0.0020374   0.0060949   0.0136751  -0.0103650   0.0005285
    2  -0.0031869   0.0052330  -0.0065427  -0.0126627   0.0203874  -0.0027380
    3  -0.0146094   0.0166880  -0.0093166   0.0144510  -0.0018851   0.0159892
            7           8           9          10          11          12
    1  -0.0012192  -0.0051090   0.0059064  -0.0042705  -0.0003236   0.0013199
    2   0.0075760  -0.0098776  -0.0020269   0.0034638   0.0034080  -0.0017526
    3  -0.0325470   0.0141316   0.0054560   0.0004431  -0.0020189  -0.0001680
           13          14          15
    1   0.0012072  -0.0008673  -0.0009587
    2   0.0005766   0.0007498  -0.0026074
    3  -0.0003912   0.0012864  -0.0075090
 Max gradient component =       3.255E-02
 RMS gradient           =       9.111E-03
 Gradient time:  CPU 66.56 s  wall 66.61 s
the nuclear gradient is: 
-0.0144681 -0.0060223 -0.0276077
0.0038501 0.0098889 0.0315356
0.0115176 -0.0123638 -0.0176058
0.0258421 -0.0239288 0.0273083
-0.0195869 0.0385263 -0.0035624
0.0009987 -0.0051740 0.0302150
-0.0023039 0.0143164 -0.0615045
-0.0096546 -0.0186658 0.0267047
0.0111614 -0.0038303 0.0103103
-0.0080699 0.0065457 0.0008374
-0.0006114 0.0064401 -0.0038152
0.0024942 -0.0033118 -0.0003175
0.0022813 0.0010897 -0.0007392
-0.0016390 0.0014169 0.0024309
-0.0018116 -0.0049272 -0.0141899
calcGrad Returned
Calling opt_gen...
Calculate magnitude of step
Normalize
Gradient flag: 0.3153455
Calling calcGrad
coords address 0x1afddee0 grads address 0x1afde1e0
 ----------------------------------------------------------------
             Standard Nuclear Orientation (Angstroms)
    I     Atom           X                Y                Z
 ----------------------------------------------------------------
    1      C       1.7126157235     0.0404171705     0.5149464658
    2      O       2.6013599420     0.1488402416    -0.3987182631
    3      O       1.7733214489     0.5594538114     1.6613943842
    4      C       0.4135546248    -0.8838482642     0.2769026768
    5      C       0.0412075491    -0.8452740349    -1.3648735617
    6      O       0.5820742861    -2.1016323353     0.7884253380
    7      C      -0.8591605872    -0.1659194591     0.7695575594
    8      O      -1.7454683920    -0.6996522688     1.3767106146
    9      C      -1.0597996087     1.3440706983     0.4250373388
   10      H      -0.3412720574     1.7870444642    -0.2699024681
   11      H      -0.9924506810     1.9125084953     1.3663353701
   12      H      -2.0693295846     1.4637893978     0.0237434760
   13      H      -0.7493597852    -1.5805686125    -1.5363919026
   14      H       0.9585516403    -1.1418719824    -1.8517166671
   15      H      -0.2787572575     0.1260560263    -1.8441062769
 ----------------------------------------------------------------
 Nuclear Repulsion Energy =   450.4792725714 hartrees
 There are       35 alpha and       35 beta electrons

                       Distance Matrix (Angstroms)
             C (  1)   O (  2)   O (  3)   C (  4)   C (  5)   O (  6)
   O (  2)  1.279220
   O (  3)  1.259931  2.257945
   C (  4)  1.611984  2.511852  2.418451
   C (  5)  2.666792  2.911374  3.759226  1.683912
   O (  6)  2.437476  3.248300  3.043440  1.331560  2.551013
   C (  7)  2.592573  3.665944  2.872543  1.542055  2.414121  2.413400
   O (  8)  3.639874  4.771478  3.748103  2.429997  3.275622  2.780123
   C (  9)  3.064944  3.938431  3.189166  2.675134  3.034671  3.834145
   H ( 10)  2.808051  3.370369  3.115829  2.828856  2.876518  4.134542
   H ( 11)  3.398084  4.375090  3.093107  3.314110  4.016630  4.350452
   H ( 12)  4.070673  4.870617  4.273838  3.426398  3.422630  4.508538
   H ( 13)  3.591226  3.938588  4.601027  2.264029  1.093194  2.729285
   H ( 14)  2.750912  2.544791  3.987519  2.212378  1.080049  2.834294
   H ( 15)  3.088370  3.222536  4.085021  2.449057  1.129391  3.554413
             C (  7)   O (  8)   C (  9)   H ( 10)   H ( 11)   H ( 12)
   O (  8)  1.199603
   C (  9)  1.561736  2.356401
   H ( 10)  2.272169  3.296477  1.093366
   H ( 11)  2.166512  2.718552  1.101680  1.765517
   H ( 12)  2.162568  2.572136  1.092941  1.782387  1.778643
   H ( 13)  2.707525  3.202251  3.535123  3.620960  4.548242  3.666669
   H ( 14)  3.335812  4.234386  3.929028  3.573546  4.846804  4.413036
   H ( 15)  2.693206  3.634102  2.691208  2.289303  3.742687  2.912824
             H ( 13)   H ( 14)
   H ( 14)  1.791325
   H ( 15)  1.796865  1.771619
 
 Applying Cartesian multipole field
    Component          Value
    ---------          -----
     (2,0,0)        1.00000E-11
     (0,2,0)        2.00000E-11
     (0,0,2)       -3.00000E-11
 Nucleus-field energy     =     0.0000000027 hartrees
 Requested basis set is 6-31+G(d)
 There are 57 shells and 183 basis functions
 A cutoff of  1.0D-11 yielded   1556 shell pairs
 There are     16760 function pairs
 Smallest overlap matrix eigenvalue = 2.71E-05
 Guess from superposition of atomic densities
 Warning:  Energy on first SCF cycle will be non-variational
 A restricted hybrid HF-DFT SCF calculation will be
 performed using Pulay DIIS extrapolation
 Exchange:     0.2000 Hartree-Fock + 0.0800 Slater + 0.7200 B88
 Correlation:  0.1900 VWN1RPA + 0.8100 LYP
 Using SG-1 standard quadrature grid
 SCF converges when DIIS error is below 1.0E-08
 CPU 0.00 s  wall 0.00 s
 Inaccurate integrated density:
   Number of electrons =    70
   Numerical integral  =    68.000276734975
   Relative error      =    -2.8567475215 %
 CPU 4.92 s  wall 4.92 s
 ---------------------------------------
  Cycle       Energy         DIIS Error
 ---------------------------------------
    1    -496.1383015683      4.85E-02
 CPU 0.00 s  wall 0.00 s
 CPU 5.50 s  wall 5.50 s
    2    -494.5640481390      1.06E-02
 CPU 0.00 s  wall 0.00 s
 CPU 5.52 s  wall 5.52 s
    3    -488.7137415954      2.99E-02
 CPU 0.00 s  wall 0.00 s
 CPU 5.50 s  wall 5.50 s
    4    -494.6509020452      9.18E-03
 CPU 0.00 s  wall 0.00 s
 CPU 5.47 s  wall 5.47 s
    5    -494.9710683659      1.86E-03
 CPU 0.00 s  wall 0.00 s
 CPU 5.45 s  wall 5.45 s
    6    -494.9834150810      1.70E-03
 CPU 0.00 s  wall 0.00 s
 CPU 5.41 s  wall 5.41 s
    7    -494.9923580618      6.34E-04
 CPU 0.00 s  wall 0.00 s
 CPU 5.38 s  wall 5.38 s
    8    -494.9933131339      3.37E-04
 CPU 0.00 s  wall 0.00 s
 CPU 5.33 s  wall 5.33 s
    9    -494.9937103361      6.75E-05
 CPU 0.00 s  wall 0.00 s
 CPU 5.24 s  wall 5.24 s
   10    -494.9937236523      3.01E-05
 CPU 0.00 s  wall 0.00 s
 CPU 5.21 s  wall 5.21 s
   11    -494.9937264768      1.14E-05
 CPU 0.00 s  wall 0.00 s
 CPU 5.15 s  wall 5.15 s
   12    -494.9937269308      3.21E-06
 CPU 0.00 s  wall 0.00 s
 CPU 5.06 s  wall 5.06 s
   13    -494.9937269747      7.27E-07
 CPU 0.00 s  wall 0.00 s
 CPU 4.94 s  wall 4.94 s
   14    -494.9937269776      1.63E-07
 CPU 0.00 s  wall 0.00 s
 CPU 4.79 s  wall 4.79 s
   15    -494.9937269774      6.82E-08
 CPU 0.00 s  wall 0.00 s
 CPU 4.62 s  wall 4.62 s
   16    -494.9937269772      1.59E-08
 CPU 0.00 s  wall 0.00 s
 CPU 4.30 s  wall 4.30 s
   17    -494.9937269761      8.17E-09 Convergence criterion met
 ---------------------------------------
 SCF time:  CPU 207.08 s  wall 206.62 s
 SCF   energy in the final basis set = -494.9937269761
 Total energy in the final basis set = -494.9937269761
 
 --------------------------------------------------------------
 
                    Orbital Energies (a.u.)
 --------------------------------------------------------------
 
 Alpha MOs
 -- Occupied --
-18.854 -18.776 -18.775 -18.738  -9.975  -9.948  -9.921  -9.921
 -9.887  -0.761  -0.695  -0.607  -0.605  -0.465  -0.409  -0.323
 -0.232  -0.190  -0.167  -0.150  -0.143  -0.126  -0.110  -0.090
 -0.084  -0.074  -0.060  -0.052  -0.028   0.036   0.058   0.071
  0.091   0.121   0.135
 -- Virtual --
  0.217   0.237   0.259   0.268   0.279   0.295   0.302   0.306
  0.307   0.317   0.329   0.338   0.344   0.352   0.358   0.372
  0.384   0.388   0.392   0.410   0.414   0.462   0.480   0.482
  0.493   0.509   0.517   0.525   0.540   0.542   0.552   0.565
  0.568   0.574   0.584   0.595   0.600   0.609   0.616   0.628
  0.629   0.649   0.655   0.657   0.669   0.673   0.683   0.724
  0.755   0.794   0.815   0.867   0.922   0.960   0.969   0.999
  1.029   1.049   1.074   1.081   1.126   1.153   1.157   1.176
  1.185   1.239   1.252   1.281   1.291   1.332   1.380   1.390
  1.412   1.436   1.448   1.490   1.543   1.570   1.584   1.613
  1.621   1.641   1.652   1.673   1.680   1.692   1.704   1.741
  1.756   1.774   1.789   1.829   1.892   1.918   1.940   1.961
  1.980   2.035   2.042   2.054   2.072   2.093   2.146   2.167
  2.185   2.204   2.233   2.249   2.289   2.304   2.313   2.334
  2.383   2.397   2.426   2.451   2.483   2.517   2.544   2.581
  2.625   2.632   2.668   2.711   2.747   2.786   2.843   2.916
  2.971   2.999   3.017   3.080   3.184   3.301   3.363   3.415
  3.459   3.513   3.578   4.452   4.540   4.579   4.643   4.726
  4.782   4.866   4.972   5.098
 --------------------------------------------------------------
 
          Ground-State Mulliken Net Atomic Charges

     Atom                 Charge (a.u.)
  ----------------------------------------
      1 C                     0.329444
      2 O                    -0.647360
      3 O                    -0.588812
      4 C                    -0.110050
      5 C                    -0.600781
      6 O                    -0.652212
      7 C                     0.319895
      8 O                    -0.462539
      9 C                    -0.724116
     10 H                     0.216983
     11 H                     0.206652
     12 H                     0.168561
     13 H                     0.175722
     14 H                     0.227413
     15 H                     0.141199
  ----------------------------------------
  Sum of atomic charges =    -2.000000

 -----------------------------------------------------------------
                    Cartesian Multipole Moments
 -----------------------------------------------------------------
    Charge (ESU x 10^10)
                -9.6064
    Dipole Moment (Debye)
         X      -8.7614      Y       6.1040      Z      -6.0588
       Tot      12.2772
    Quadrupole Moments (Debye-Ang)
        XX     -99.1896     XY      -2.8967     YY     -83.2746
        XZ      -0.8965     YZ       3.5346     ZZ     -80.7836
    Octopole Moments (Debye-Ang^2)
       XXX    -121.0777    XXY       6.1379    XYY     -26.7620
       YYY      81.5175    XXZ     -38.2716    XYZ      -6.5459
       YYZ     -35.7819    XZZ     -30.1604    YZZ      22.1668
       ZZZ     -69.7924
    Hexadecapole Moments (Debye-Ang^3)
      XXXX   -1065.6687   XXXY     -16.2620   XXYY    -247.2032
      XYYY      46.3168   YYYY    -613.5000   XXXZ      22.8891
      XXYZ      -6.8256   XYYZ      -7.8201   YYYZ      15.4117
      XXZZ    -271.9510   XYZZ     -10.8434   YYZZ    -185.6578
      XZZZ     -22.6976   YZZZ     -20.5939   ZZZZ    -553.9391
 -----------------------------------------------------------------
 Calculating analytic gradient of the SCF energy
 CPU 0.00 s  wall 0.00 s
 CPU 8.52 s  wall 8.52 s
 Gradient of SCF Energy
            1           2           3           4           5           6
    1  -0.0043632   0.0112338   0.0001466  -0.0016331   0.0017518   0.0019476
    2  -0.0017568   0.0041632  -0.0062686  -0.0016629  -0.0056716  -0.0028146
    3   0.0106811  -0.0044437  -0.0085740   0.0091634  -0.0058983   0.0150656
            7           8           9          10          11          12
    1  -0.0329038   0.0352513  -0.0030737  -0.0028914   0.0006143   0.0052130
    2  -0.0287802   0.0192493  -0.0009295   0.0040474   0.0022891  -0.0010857
    3   0.0161580  -0.0223717  -0.0053730  -0.0000929   0.0011528   0.0017924
           13          14          15
    1   0.0023332  -0.0086611  -0.0049654
    2   0.0047849   0.0050947   0.0093413
    3  -0.0000191   0.0045096  -0.0117501
 Max gradient component =       3.525E-02
 RMS gradient           =       1.115E-02
 Gradient time:  CPU 66.53 s  wall 66.57 s
the nuclear gradient is: 
-0.0082453 -0.0033198 0.0201843
0.0212288 0.0078673 -0.0083974
0.0002770 -0.0118459 -0.0162024
-0.0030860 -0.0031424 0.0173163
0.0033104 -0.0107176 -0.0111462
0.0036805 -0.0053189 0.0284698
-0.0621789 -0.0543863 0.0305340
0.0666149 0.0363756 -0.0422761
-0.0058085 -0.0017565 -0.0101535
-0.0054640 0.0076484 -0.0001756
0.0011609 0.0043257 0.0021785
0.0098512 -0.0020517 0.0033871
0.0044091 0.0090422 -0.0000361
-0.0163670 0.0096275 0.0085218
-0.0093832 0.0176524 -0.0222044
calcGrad Returned
Calling opt_gen...
Calculate magnitude of step
Normalize
Hessian updated
Gradient convergence criteria satisfied
done with opt_step_by_gradient, Reactant, iter1
-Optimizing new product side node
Using BFGS, step: 2 E_tol 0.0167953
max_steps 3 node_spacing 0.4387825 sigma 0.7000000
Calling calcGrad
coords address 0x1afdd760 grads address 0x1afdda60
 ----------------------------------------------------------------
             Standard Nuclear Orientation (Angstroms)
    I     Atom           X                Y                Z
 ----------------------------------------------------------------
    1      C       1.9140831935    -0.3406732161     0.6173988415
    2      O       2.3964684674     0.8213602442     0.5654381219
    3      O       2.5767009593    -1.3910434813     0.4066416033
    4      C       0.4443793045    -0.6119271203     1.0168533196
    5      C      -0.1765142450    -0.5504399387    -1.3759328156
    6      O       0.2670081510    -1.0556709687     2.1658556004
    7      C      -0.8211618260    -0.2807207910     0.1522300885
    8      O      -1.9024030070    -0.9940285909     0.4387415835
    9      C      -1.0341157972     1.2685251012     0.2690779688
   10      H      -1.7345952166     1.5630731553    -0.5259912721
   11      H      -0.1673668699     1.9408142297     0.2128938405
   12      H      -1.5200896880     1.4427106315     1.2378191027
   13      H      -0.0836141132    -1.6345815995    -1.5082670552
   14      H       0.7672908715    -0.0692123029    -1.6660620730
   15      H      -0.9603373861    -0.1864841137    -2.0597875631
 ----------------------------------------------------------------
 Nuclear Repulsion Energy =   446.3160209805 hartrees
 There are       35 alpha and       35 beta electrons

                       Distance Matrix (Angstroms)
             C (  1)   O (  2)   O (  3)   C (  4)   C (  5)   O (  6)
   O (  2)  1.259253
   O (  3)  1.259666  2.225406
   C (  4)  1.546988  2.463481  2.350782
   C (  5)  2.896199  3.502998  3.385909  2.472795
   O (  6)  2.371033  3.258709  2.922668  1.244418  3.605029
   C (  7)  2.775165  3.426145  3.583715  1.568077  1.680357  2.416475
   O (  8)  3.876127  4.668189  4.496779  2.446958  2.543326  2.773638
   C (  9)  3.376792  3.472275  4.486672  2.506235  2.598110  3.269951
   H ( 10)  4.271352  4.336709  5.308850  3.443679  2.759883  4.255617
   H ( 11)  3.114682  2.819701  4.320732  2.745373  2.954793  3.603008
   H ( 12)  3.919046  4.022139  5.050219  2.851228  3.550992  3.208875
   H ( 13)  3.191152  4.059891  3.286862  2.775037  1.096132  3.735940
   H ( 14)  2.569634  2.902918  3.052426  2.756238  1.098418  3.988355
   H ( 15)  3.931081  4.379007  4.477150  3.408805  1.102043  4.485301
             C (  7)   O (  8)   C (  9)   H ( 10)   H ( 11)   H ( 12)
   O (  8)  1.326642
   C (  9)  1.568173  2.429374
   H ( 10)  2.166546  2.738182  1.099802
   H ( 11)  2.316537  3.416820  1.098355  1.773371
   H ( 12)  2.153420  2.592757  1.097712  1.780878  1.768739
   H ( 13)  2.265870  2.740282  3.534181  3.730362  3.968988  4.367400
   H ( 14)  2.423655  3.523173  2.963001  3.197429  2.905902  3.993814
   H ( 15)  2.218394  2.789671  2.747018  2.452133  3.212364  3.720458
             H ( 13)   H ( 14)
   H ( 14)  1.788664
   H ( 15)  1.780395  1.775802
 
 Applying Cartesian multipole field
    Component          Value
    ---------          -----
     (2,0,0)        1.00000E-11
     (0,2,0)        2.00000E-11
     (0,0,2)       -3.00000E-11
 Nucleus-field energy     =     0.0000000026 hartrees
 Requested basis set is 6-31+G(d)
 There are 57 shells and 183 basis functions
 A cutoff of  1.0D-11 yielded   1540 shell pairs
 There are     16529 function pairs
 Smallest overlap matrix eigenvalue = 3.02E-05
 Guess from superposition of atomic densities
 Warning:  Energy on first SCF cycle will be non-variational
 A restricted hybrid HF-DFT SCF calculation will be
 performed using Pulay DIIS extrapolation
 Exchange:     0.2000 Hartree-Fock + 0.0800 Slater + 0.7200 B88
 Correlation:  0.1900 VWN1RPA + 0.8100 LYP
 Using SG-1 standard quadrature grid
 SCF converges when DIIS error is below 1.0E-08
 CPU 0.00 s  wall 0.00 s
 Inaccurate integrated density:
   Number of electrons =    70
   Numerical integral  =    68.000371678376
   Relative error      =    -2.8566118880 %
 CPU 4.83 s  wall 4.83 s
 ---------------------------------------
  Cycle       Energy         DIIS Error
 ---------------------------------------
    1    -496.1284759541      4.82E-02
 CPU 0.00 s  wall 0.00 s
 CPU 5.40 s  wall 5.40 s
    2    -494.5811166258      1.07E-02
 CPU 0.00 s  wall 0.00 s
 CPU 5.41 s  wall 5.41 s
    3    -489.9389940563      2.74E-02
 CPU 0.00 s  wall 0.00 s
 CPU 5.39 s  wall 5.39 s
    4    -494.6216396916      9.96E-03
 CPU 0.00 s  wall 0.00 s
 CPU 5.37 s  wall 5.37 s
    5    -494.9625372197      2.96E-03
 CPU 0.00 s  wall 0.00 s
 CPU 5.35 s  wall 5.35 s
    6    -494.9989845377      1.37E-03
 CPU 0.00 s  wall 0.00 s
 CPU 5.32 s  wall 5.32 s
    7    -495.0044744216      6.64E-04
 CPU 0.00 s  wall 0.00 s
 CPU 5.26 s  wall 5.26 s
    8    -495.0055586846      3.56E-04
 CPU 0.00 s  wall 0.00 s
 CPU 5.24 s  wall 5.24 s
    9    -495.0059903324      4.13E-05
 CPU 0.00 s  wall 0.00 s
 CPU 5.15 s  wall 5.15 s
   10    -495.0059951986      1.67E-05
 CPU 0.00 s  wall 0.00 s
 CPU 5.07 s  wall 5.07 s
   11    -495.0059962053      6.90E-06
 CPU 0.00 s  wall 0.00 s
 CPU 5.03 s  wall 5.03 s
   12    -495.0059963305      3.89E-06
 CPU 0.00 s  wall 0.00 s
 CPU 4.95 s  wall 4.95 s
   13    -495.0059963804      1.05E-06
 CPU 0.00 s  wall 0.00 s
 CPU 4.87 s  wall 4.87 s
   14    -495.0059963844      3.83E-07
 CPU 0.00 s  wall 0.00 s
 CPU 4.75 s  wall 4.75 s
   15    -495.0059963853      8.53E-08
 CPU 0.00 s  wall 0.00 s
 CPU 4.63 s  wall 4.63 s
   16    -495.0059963845      1.72E-08
 CPU 0.00 s  wall 0.00 s
 CPU 4.25 s  wall 4.25 s
   17    -495.0059963845      9.79E-09 Convergence criterion met
 ---------------------------------------
 SCF time:  CPU 201.95 s  wall 201.48 s
 SCF   energy in the final basis set = -495.0059963845
 Total energy in the final basis set = -495.0059963845
 
 --------------------------------------------------------------
 
                    Orbital Energies (a.u.)
 --------------------------------------------------------------
 
 Alpha MOs
 -- Occupied --
-18.837 -18.802 -18.796 -18.753  -9.973  -9.958  -9.941  -9.897
 -9.889  -0.736  -0.709  -0.633  -0.625  -0.449  -0.397  -0.338
 -0.256  -0.175  -0.151  -0.142  -0.133  -0.125  -0.115  -0.104
 -0.083  -0.069  -0.063  -0.046  -0.037   0.016   0.048   0.067
  0.071   0.102   0.114
 -- Virtual --
  0.230   0.240   0.268   0.281   0.283   0.288   0.299   0.304
  0.306   0.311   0.329   0.340   0.346   0.350   0.358   0.360
  0.368   0.385   0.402   0.406   0.433   0.456   0.474   0.485
  0.490   0.502   0.506   0.526   0.531   0.536   0.545   0.555
  0.567   0.571   0.575   0.584   0.596   0.603   0.605   0.616
  0.620   0.637   0.643   0.659   0.665   0.688   0.692   0.724
  0.737   0.800   0.811   0.826   0.925   0.942   0.972   1.004
  1.033   1.052   1.083   1.091   1.105   1.115   1.148   1.169
  1.181   1.213   1.249   1.267   1.283   1.301   1.339   1.377
  1.385   1.426   1.457   1.514   1.526   1.560   1.598   1.612
  1.629   1.641   1.646   1.657   1.675   1.694   1.710   1.740
  1.745   1.783   1.793   1.845   1.880   1.916   1.927   1.960
  1.972   1.986   2.030   2.074   2.093   2.129   2.137   2.166
  2.180   2.199   2.240   2.245   2.256   2.266   2.304   2.313
  2.369   2.377   2.403   2.459   2.480   2.510   2.548   2.562
  2.577   2.587   2.662   2.714   2.721   2.805   2.820   2.891
  2.958   3.009   3.036   3.099   3.152   3.222   3.359   3.401
  3.440   3.485   3.525   4.467   4.557   4.608   4.637   4.666
  4.767   4.805   4.904   5.062
 --------------------------------------------------------------
 
          Ground-State Mulliken Net Atomic Charges

     Atom                 Charge (a.u.)
  ----------------------------------------
      1 C                     0.173565
      2 O                    -0.598326
      3 O                    -0.585371
      4 C                     0.412115
      5 C                    -0.739211
      6 O                    -0.467128
      7 C                     0.040599
      8 O                    -0.655255
      9 C                    -0.680742
     10 H                     0.155723
     11 H                     0.207881
     12 H                     0.191510
     13 H                     0.198484
     14 H                     0.197045
     15 H                     0.149109
  ----------------------------------------
  Sum of atomic charges =    -2.000000

 -----------------------------------------------------------------
                    Cartesian Multipole Moments
 -----------------------------------------------------------------
    Charge (ESU x 10^10)
                -9.6064
    Dipole Moment (Debye)
         X      -4.3616      Y       5.7155      Z      -5.7301
       Tot       9.1936
    Quadrupole Moments (Debye-Ang)
        XX    -111.5092     XY      -1.9329     YY     -78.0306
        XZ      -3.3922     YZ       5.2738     ZZ     -75.9453
    Octopole Moments (Debye-Ang^2)
       XXX    -115.0930    XXY      42.4578    XYY     -29.8671
       YYY      58.2746    XXZ     -41.6996    XYZ      -1.6543
       YYZ     -32.3093    XZZ     -18.9425    YZZ      32.5981
       ZZZ     -78.9567
    Hexadecapole Moments (Debye-Ang^3)
      XXXX   -1316.4793   XXXY      58.2044   XXYY    -316.7684
      XYYY      65.8889   YYYY    -461.4375   XXXZ     -91.3619
      XXYZ      17.2529   XYYZ     -30.5943   YYYZ      42.8290
      XXZZ    -251.5665   XYZZ      14.0824   YYZZ    -168.9960
      XZZZ     -73.2441   YZZZ      57.7107   ZZZZ    -560.4282
 -----------------------------------------------------------------
 Calculating analytic gradient of the SCF energy
 CPU 0.00 s  wall 0.00 s
 CPU 8.37 s  wall 8.37 s
 Gradient of SCF Energy
            1           2           3           4           5           6
    1  -0.0150001   0.0120608  -0.0002420   0.0110007   0.0280999  -0.0065178
    2   0.0082199  -0.0153587   0.0140094  -0.0063688  -0.0021844  -0.0024144
    3   0.0062164  -0.0037795   0.0030338  -0.0420026  -0.0041502   0.0126857
            7           8           9          10          11          12
    1  -0.0343335  -0.0019646   0.0076625   0.0035909  -0.0065026   0.0020263
    2   0.0086270  -0.0064089  -0.0046286  -0.0002986   0.0069840  -0.0005392
    3   0.0247309   0.0096044  -0.0021263   0.0001515   0.0018759  -0.0006811
           13          14          15
    1  -0.0005605  -0.0004018   0.0010816
    2   0.0005244  -0.0021194   0.0019561
    3  -0.0007897  -0.0082167   0.0034476
 Max gradient component =       4.200E-02
 RMS gradient           =       1.171E-02
 Gradient time:  CPU 65.51 s  wall 65.55 s
the nuclear gradient is: 
-0.0283460 0.0155333 0.0117472
0.0227914 -0.0290236 -0.0071422
-0.0004573 0.0264739 0.0057330
0.0207882 -0.0120352 -0.0793729
0.0531009 -0.0041278 -0.0078427
-0.0123167 -0.0045625 0.0239724
-0.0648806 0.0163025 0.0467344
-0.0037125 -0.0121109 0.0181496
0.0144799 -0.0087468 -0.0040181
0.0067857 -0.0005642 0.0002863
-0.0122880 0.0131978 0.0035449
0.0038292 -0.0010190 -0.0012872
-0.0010591 0.0009911 -0.0014923
-0.0007592 -0.0040050 -0.0155273
0.0020440 0.0036965 0.0065149
calcGrad Returned
Calling opt_gen...
Calculate magnitude of step
Normalize
Gradient flag: 0.5914063
Calling calcGrad
coords address 0x1afde060 grads address 0x1afde360
 ----------------------------------------------------------------
             Standard Nuclear Orientation (Angstroms)
    I     Atom           X                Y                Z
 ----------------------------------------------------------------
    1      C       1.9248948135    -0.3442497439     0.6115959774
    2      O       2.3878755034     0.8348555576     0.5626693875
    3      O       2.5780194128    -1.3987623778     0.4084034640
    4      C       0.4356364737    -0.6087417697     1.0455533294
    5      C      -0.1962722499    -0.5500869194    -1.3724136716
    6      O       0.2735415807    -1.0608838364     2.1511944267
    7      C      -0.7972223672    -0.2863280510     0.1359873741
    8      O      -1.9025403288    -0.9875677004     0.4359712454
    9      C      -1.0404721803     1.2729416299     0.2718151734
   10      H      -1.7330611981     1.5651942457    -0.5286594976
   11      H      -0.1637238828     1.9378144869     0.2182243656
   12      H      -1.5273557527     1.4437183306     1.2368307191
   13      H      -0.0865010572    -1.6368221148    -1.5067894091
   14      H       0.7709767895    -0.0732380551    -1.6616124809
   15      H      -0.9580663389    -0.1861433136    -2.0618575176
 ----------------------------------------------------------------
 Nuclear Repulsion Energy =   446.4036558140 hartrees
 There are       35 alpha and       35 beta electrons

                       Distance Matrix (Angstroms)
             C (  1)   O (  2)   O (  3)   C (  4)   C (  5)   O (  6)
   O (  2)  1.267689
   O (  3)  1.256923  2.246998
   C (  4)  1.573584  2.475558  2.370632
   C (  5)  2.911703  3.512895  3.404152  2.499863
   O (  6)  2.368733  3.253867  2.908969  1.205466  3.591302
   C (  7)  2.763961  3.403522  3.564264  1.565631  1.644987  2.409882
   O (  8)  3.885095  4.663148  4.499473  2.445848  2.524479  2.771768
   C (  9)  3.394725  3.468441  4.500016  2.513623  2.596073  3.271917
   H ( 10)  4.280981  4.325103  5.314936  3.450709  2.747373  4.254922
   H ( 11)  3.118475  2.801039  4.322739  2.743839  2.953107  3.594408
   H ( 12)  3.937738  4.019234  5.061630  2.846492  3.543332  3.217503
   H ( 13)  3.194372  4.063790  3.290031  2.800720  1.100500  3.720508
   H ( 14)  2.563679  2.895933  3.050801  2.779922  1.116509  3.969935
   H ( 15)  3.934948  4.373318  4.480685  3.431763  1.090008  4.475694
             C (  7)   O (  8)   C (  9)   H ( 10)   H ( 11)   H ( 12)
   O (  8)  1.342928
   C (  9)  1.583964  2.424873
   H ( 10)  2.178459  2.734196  1.098112
   H ( 11)  2.314064  3.410096  1.101642  1.777499
   H ( 12)  2.176697  2.587140  1.094292  1.781580  1.772338
   H ( 13)  2.242248  2.737490  3.541217  3.731060  3.969844  4.369582
   H ( 14)  2.394999  3.519027  2.971816  3.199726  2.907195  3.998057
   H ( 15)  2.205999  2.788093  2.753497  2.453262  3.215735  3.723155
             H ( 13)   H ( 14)
   H ( 14)  1.789981
   H ( 15)  1.781066  1.778351
 
 Applying Cartesian multipole field
    Component          Value
    ---------          -----
     (2,0,0)        1.00000E-11
     (0,2,0)        2.00000E-11
     (0,0,2)       -3.00000E-11
 Nucleus-field energy     =     0.0000000027 hartrees
 Requested basis set is 6-31+G(d)
 There are 57 shells and 183 basis functions
 A cutoff of  1.0D-11 yielded   1541 shell pairs
 There are     16530 function pairs
 Smallest overlap matrix eigenvalue = 2.96E-05
 Guess from superposition of atomic densities
 Warning:  Energy on first SCF cycle will be non-variational
 A restricted hybrid HF-DFT SCF calculation will be
 performed using Pulay DIIS extrapolation
 Exchange:     0.2000 Hartree-Fock + 0.0800 Slater + 0.7200 B88
 Correlation:  0.1900 VWN1RPA + 0.8100 LYP
 Using SG-1 standard quadrature grid
 SCF converges when DIIS error is below 1.0E-08
 CPU 0.00 s  wall 0.00 s
 Inaccurate integrated density:
   Number of electrons =    70
   Numerical integral  =    68.000221088854
   Relative error      =    -2.8568270159 %
 CPU 4.84 s  wall 4.84 s
 ---------------------------------------
  Cycle       Energy         DIIS Error
 ---------------------------------------
    1    -496.1477303475      4.85E-02
 CPU 0.00 s  wall 0.00 s
 CPU 5.40 s  wall 5.40 s
    2    -494.5855284217      1.07E-02
 CPU 0.00 s  wall 0.00 s
 CPU 5.42 s  wall 5.42 s
    3    -489.8091368039      2.72E-02
 CPU 0.00 s  wall 0.00 s
 CPU 5.40 s  wall 5.40 s
    4    -494.6153073640      1.01E-02
 CPU 0.00 s  wall 0.00 s
 CPU 5.37 s  wall 5.37 s
    5    -494.9564996200      3.33E-03
 CPU 0.00 s  wall 0.00 s
 CPU 5.36 s  wall 5.36 s
    6    -495.0022059860      1.45E-03
 CPU 0.00 s  wall 0.00 s
 CPU 5.34 s  wall 5.34 s
    7    -495.0084472412      7.11E-04
 CPU 0.00 s  wall 0.00 s
 CPU 5.30 s  wall 5.30 s
    8    -495.0096763697      3.88E-04
 CPU 0.00 s  wall 0.00 s
 CPU 5.26 s  wall 5.26 s
    9    -495.0101848716      4.70E-05
 CPU 0.00 s  wall 0.00 s
 CPU 5.15 s  wall 5.15 s
   10    -495.0101909290      2.07E-05
 CPU 0.00 s  wall 0.00 s
 CPU 5.09 s  wall 5.09 s
   11    -495.0101923723      8.23E-06
 CPU 0.00 s  wall 0.00 s
 CPU 5.04 s  wall 5.04 s
   12    -495.0101925710      3.99E-06
 CPU 0.00 s  wall 0.00 s
 CPU 5.02 s  wall 5.02 s
   13    -495.0101926223      1.27E-06
 CPU 0.00 s  wall 0.00 s
 CPU 4.90 s  wall 4.90 s
   14    -495.0101926279      4.36E-07
 CPU 0.00 s  wall 0.00 s
 CPU 4.77 s  wall 4.77 s
[...]
 Calculating analytic gradient of the SCF energy
 CPU 0.00 s  wall 0.00 s
 CPU 8.18 s  wall 8.18 s
 Gradient of SCF Energy
            1           2           3           4           5           6
    1  -0.0011490   0.0093416  -0.0023527  -0.0005154   0.0052218  -0.0034107
    2   0.0018618  -0.0025522  -0.0060143  -0.0030238   0.0021215   0.0096744
    3  -0.0323757   0.0211959  -0.0008537  -0.0112169   0.0151583   0.0172839
            7           8           9          10          11          12
    1   0.0081919  -0.0074036  -0.0011400  -0.0026023  -0.0007776  -0.0024786
    2   0.0004979  -0.0076411  -0.0002255   0.0008726   0.0002484  -0.0020524
    3  -0.0106228   0.0093661  -0.0006248   0.0003928   0.0003167   0.0012206
           13          14          15
    1   0.0011229  -0.0019929  -0.0000554
    2   0.0051407   0.0007124   0.0003796
    3  -0.0020366  -0.0041840  -0.0030198
 Max gradient component =       3.238E-02
 RMS gradient           =       8.035E-03
 Gradient time:  CPU 64.06 s  wall 64.10 s
the nuclear gradient is: 
-0.0021713 0.0035183 -0.0611809
0.0176530 -0.0048229 0.0400542
-0.0044459 -0.0113653 -0.0016132
-0.0009739 -0.0057140 -0.0211968
0.0098677 0.0040090 0.0286448
-0.0064452 0.0182819 0.0326616
0.0154803 0.0009408 -0.0200741
-0.0139908 -0.0144395 0.0176993
-0.0021543 -0.0004262 -0.0011806
-0.0049176 0.0016490 0.0007422
-0.0014694 0.0004695 0.0005985
-0.0046839 -0.0038784 0.0023065
0.0021220 0.0097145 -0.0038486
-0.0037661 0.0013461 -0.0079065
-0.0001047 0.0007173 -0.0057065
 ----------------------------------------------------------------
             Standard Nuclear Orientation (Angstroms)
    I     Atom           X                Y                Z
 ----------------------------------------------------------------
    1      C       1.8864217458    -0.0452574220     0.5690193117
    2      O       2.4421612454     0.5291734450    -0.3971901371
    3      O       2.3874838786    -0.1329400225     1.7319598059
    4      C       0.4690505414    -0.8168807413     0.5867277449
    5      C      -0.0701844470    -0.7869874231    -1.3987411995
    6      O       0.4920565798    -1.9277117849     1.1858293590
    7      C      -0.8799390658    -0.1615601454     0.5196109076
    8      O      -1.9155922059    -0.7954862335     0.8804876442
    9      C      -1.0817260628     1.3604907608     0.3494865439
   10      H      -0.8241680566     1.7634385680    -0.6363410584
   11      H      -0.4935528686     1.9107538927     1.0987701663
   12      H      -2.1518249587     1.5305506774     0.5423896684
   13      H      -0.5673536308    -1.7498249998    -1.5128743261
   14      H       0.9421679653    -0.7751134535    -1.8126996995
   15      H      -0.6561087455    -0.0106260900    -1.9242031082
 ----------------------------------------------------------------
 Nuclear Repulsion Energy =   444.6099368970 hartrees
 There are       35 alpha and       35 beta electrons

                       Distance Matrix (Angstroms)
             C (  1)   O (  2)   O (  3)   C (  4)   C (  5)   O (  6)
   O (  2)  1.253945
   O (  3)  1.269323  2.230395
   C (  4)  1.613895  2.583239  2.336604
   C (  5)  2.872378  3.007867  4.033510  2.057609
   O (  6)  2.422466  3.513566  2.666854  1.262299  2.880516
   C (  7)  2.769245  3.514824  3.485206  1.501240  2.174152  2.333562
   O (  8)  3.887823  4.730454  4.436264  2.402764  2.932659  2.678048
   C (  9)  3.291538  3.696809  4.022062  2.683680  2.948081  3.740125
   H ( 10)  3.474417  3.499930  4.418123  3.134702  2.766662  4.321729
   H ( 11)  3.125843  3.572825  3.588591  2.937479  3.700623  3.963940
   H ( 12)  4.334895  4.794818  4.978715  3.518720  3.670449  4.400421
   H ( 13)  3.641544  3.936466  4.677000  2.520486  1.089615  2.904651
   H ( 14)  2.663999  2.440248  3.881486  2.445984  1.093782  3.243803
   H ( 15)  3.561154  3.496059  4.758775  2.867194  1.105511  3.829596
             C (  7)   O (  8)   C (  9)   H ( 10)   H ( 11)   H ( 12)
   O (  8)  1.266756
   C (  9)  1.544765  2.371820
   H ( 10)  2.246098  3.168607  1.095700
   H ( 11)  2.186139  3.064895  1.100074  1.772461
   H ( 12)  2.116944  2.362322  1.100565  1.790619  1.789966
   H ( 13)  2.598325  2.908039  3.661561  3.630053  4.497329  4.182765
   H ( 14)  3.022614  3.926890  3.651301  3.308778  4.213293  4.520545
   H ( 15)  2.458680  3.173105  2.689010  2.198667  3.585595  3.270546
             H ( 13)   H ( 14)
   H ( 14)  1.821706
   H ( 15)  1.789380  1.775208
 
 Applying Cartesian multipole field
    Component          Value
    ---------          -----
     (2,0,0)        1.00000E-11
     (0,2,0)        2.00000E-11
     (0,0,2)       -3.00000E-11
 Nucleus-field energy     =     0.0000000031 hartrees
 Requested basis set is 6-31+G(d)
 There are 57 shells and 183 basis functions
 A cutoff of  1.0D-11 yielded   1542 shell pairs
 There are     16582 function pairs
 Smallest overlap matrix eigenvalue = 2.25E-05
 Guess from superposition of atomic densities
 Warning:  Energy on first SCF cycle will be non-variational
 A restricted hybrid HF-DFT SCF calculation will be
 performed using Pulay DIIS extrapolation
 Exchange:     0.2000 Hartree-Fock + 0.0800 Slater + 0.7200 B88
 Correlation:  0.1900 VWN1RPA + 0.8100 LYP
 Using SG-1 standard quadrature grid
 SCF converges when DIIS error is below 1.0E-08
 CPU 0.00 s  wall 0.00 s
 Inaccurate integrated density:
   Number of electrons =    70
   Numerical integral  =    67.999489413379
   Relative error      =    -2.8578722666 %
 CPU 4.73 s  wall 4.73 s
 ---------------------------------------
  Cycle       Energy         DIIS Error
 ---------------------------------------
    1    -496.0673534176      4.80E-02
 CPU 0.00 s  wall 0.00 s
 CPU 5.21 s  wall 5.21 s
    2    -494.5394726983      1.06E-02
 CPU 0.00 s  wall 0.00 s
 CPU 5.22 s  wall 5.22 s
    3    -490.5114605220      2.87E-02
 CPU 0.00 s  wall 0.00 s
 CPU 5.21 s  wall 5.21 s
    4    -494.6546694105      8.44E-03
 CPU 0.00 s  wall 0.00 s
 CPU 5.18 s  wall 5.18 s
    5    -494.9488455313      1.50E-03
 CPU 0.00 s  wall 0.00 s
 CPU 5.16 s  wall 5.16 s
    6    -494.9504614687      1.80E-03
 CPU 0.00 s  wall 0.00 s
 CPU 5.13 s  wall 5.13 s
    7    -494.9603776694      5.72E-04
 CPU 0.00 s  wall 0.00 s
 CPU 5.09 s  wall 5.09 s
    8    -494.9613330607      2.02E-04
 CPU 0.00 s  wall 0.00 s
 CPU 5.04 s  wall 5.04 s
    9    -494.9614830511      3.91E-05
 CPU 0.00 s  wall 0.00 s
 CPU 4.98 s  wall 4.98 s
   10    -494.9614883548      2.10E-05
 CPU 0.00 s  wall 0.00 s
 CPU 4.93 s  wall 4.93 s
   11    -494.9614898422      6.59E-06
 CPU 0.00 s  wall 0.00 s
 CPU 4.86 s  wall 4.86 s
   12    -494.9614899756      3.57E-06
 CPU 0.00 s  wall 0.00 s
 CPU 4.78 s  wall 4.78 s
   13    -494.9614900221      9.20E-07
 CPU 0.00 s  wall 0.00 s
 CPU 4.70 s  wall 4.70 s
   14    -494.9614900250      3.26E-07
 CPU 0.00 s  wall 0.00 s
 CPU 4.60 s  wall 4.60 s
   15    -494.9614900256      7.75E-08
 CPU 0.00 s  wall 0.00 s
 CPU 4.44 s  wall 4.44 s
   16    -494.9614900230      3.24E-08
 CPU 0.00 s  wall 0.00 s
 CPU 4.23 s  wall 4.23 s
   17    -494.9614900234      7.40E-09 Convergence criterion met
 ---------------------------------------
 SCF time:  CPU 196.77 s  wall 196.25 s
 SCF   energy in the final basis set = -494.9614900234
 Total energy in the final basis set = -494.9614900234
 
 --------------------------------------------------------------
 
                    Orbital Energies (a.u.)
 --------------------------------------------------------------
 
 Alpha MOs
 -- Occupied --
-18.817 -18.789 -18.776 -18.775  -9.968  -9.960  -9.942  -9.922
 -9.883  -0.714  -0.703  -0.658  -0.613  -0.463  -0.395  -0.330
 -0.242  -0.186  -0.163  -0.144  -0.135  -0.107  -0.104  -0.102
 -0.082  -0.081  -0.069  -0.057  -0.004   0.037   0.052   0.065
  0.092   0.100   0.114
 -- Virtual --
  0.219   0.240   0.263   0.272   0.280   0.297   0.300   0.309
  0.312   0.322   0.334   0.337   0.341   0.343   0.347   0.362
  0.375   0.386   0.395   0.403   0.409   0.425   0.466   0.474
  0.494   0.496   0.511   0.521   0.533   0.538   0.546   0.554
  0.563   0.574   0.578   0.590   0.594   0.600   0.607   0.611
  0.623   0.641   0.645   0.655   0.674   0.694   0.706   0.726
  0.749   0.787   0.827   0.880   0.922   0.943   0.971   0.991
  1.012   1.044   1.097   1.107   1.128   1.146   1.150   1.167
  1.195   1.232   1.240   1.263   1.278   1.310   1.337   1.369
  1.392   1.425   1.445   1.497   1.525   1.534   1.559   1.618
  1.622   1.637   1.647   1.661   1.671   1.681   1.689   1.736
  1.739   1.760   1.766   1.814   1.850   1.885   1.930   1.951
  1.970   2.013   2.034   2.073   2.091   2.107   2.139   2.147
  2.184   2.213   2.219   2.246   2.265   2.282   2.293   2.326
  2.342   2.389   2.421   2.477   2.494   2.500   2.535   2.586
  2.613   2.653   2.686   2.702   2.737   2.770   2.816   2.881
  2.925   3.004   3.027   3.068   3.156   3.253   3.367   3.436
  3.444   3.502   3.555   4.456   4.501   4.615   4.628   4.701
  4.758   4.807   4.877   5.138
 --------------------------------------------------------------
 
          Ground-State Mulliken Net Atomic Charges

     Atom                 Charge (a.u.)
  ----------------------------------------
      1 C                     0.309202
      2 O                    -0.616732
      3 O                    -0.587360
      4 C                     0.170546
      5 C                    -0.918525
      6 O                    -0.536889
      7 C                     0.459285
      8 O                    -0.549843
      9 C                    -0.856270
     10 H                     0.191445
     11 H                     0.196363
     12 H                     0.182684
     13 H                     0.190515
     14 H                     0.221381
     15 H                     0.144198
  ----------------------------------------
  Sum of atomic charges =    -2.000000

 -----------------------------------------------------------------
                    Cartesian Multipole Moments
 -----------------------------------------------------------------
    Charge (ESU x 10^10)
                -9.6064
    Dipole Moment (Debye)
         X      -7.3885      Y       5.9053      Z      -5.4689
       Tot      10.9257
    Quadrupole Moments (Debye-Ang)
        XX    -105.8270     XY      -5.8255     YY     -77.2498
        XZ      -6.3387     YZ       7.6282     ZZ     -83.2753
    Octopole Moments (Debye-Ang^2)
       XXX    -124.6060    XXY      11.6863    XYY     -21.9376
       YYY      68.9602    XXZ     -53.2221    XYZ       3.3759
       YYZ     -32.0908    XZZ     -42.0388    YZZ      34.2433
       ZZZ     -61.5568
    Hexadecapole Moments (Debye-Ang^3)
      XXXX   -1235.3360   XXXY     -38.1647   XXYY    -254.5080
      XYYY      26.8775   YYYY    -517.4602   XXXZ     -96.1003
      XXYZ      25.6879   XYYZ     -19.8007   YYYZ      53.7713
      XXZZ    -317.2667   XYZZ       3.9801   YYZZ    -184.4760
      XZZZ    -103.7803   YZZZ      20.0630   ZZZZ    -590.6000
 -----------------------------------------------------------------
 Calculating analytic gradient of the SCF energy
 CPU 0.00 s  wall 0.00 s
 CPU 8.19 s  wall 8.19 s
 Gradient of SCF Energy
            1           2           3           4           5           6
    1  -0.0012594   0.0093300  -0.0021838  -0.0004431   0.0050975  -0.0033834
    2   0.0018460  -0.0025570  -0.0060222  -0.0030884   0.0021925   0.0097073
    3  -0.0322058   0.0213236  -0.0010354  -0.0110604   0.0151682   0.0174251
            7           8           9          10          11          12
    1   0.0082667  -0.0073518  -0.0011126  -0.0026058  -0.0007512  -0.0024540
    2   0.0003859  -0.0076469  -0.0002359   0.0009043   0.0002433  -0.0020867
    3  -0.0107925   0.0092850  -0.0006650   0.0003738   0.0003095   0.0012121
           13          14          15
    1   0.0010789  -0.0020586  -0.0001694
    2   0.0051629   0.0007667   0.0004283
    3  -0.0020434  -0.0041052  -0.0031896
 Max gradient component =       3.221E-02
 RMS gradient           =       8.034E-03
 Gradient time:  CPU 64.20 s  wall 64.24 s
the nuclear gradient is: 
-0.0023799 0.0034884 -0.0608598
0.0176311 -0.0048320 0.0402955
-0.0041267 -0.0113803 -0.0019567
-0.0008374 -0.0058362 -0.0209011
0.0096328 0.0041432 0.0286636
-0.0063936 0.0183440 0.0329285
0.0156217 0.0007292 -0.0203948
-0.0138929 -0.0144506 0.0175461
-0.0021025 -0.0004457 -0.0012566
-0.0049243 0.0017088 0.0007064
-0.0014196 0.0004597 0.0005850
-0.0046374 -0.0039432 0.0022905
0.0020388 0.0097565 -0.0038614
-0.0038901 0.0014489 -0.0077577
-0.0003200 0.0008094 -0.0060274
E1 = -494.9614376 E2 = -494.9614900 and Emax = -494.9614630
Iteration = 5 Curvature = -0.0538165
Curvature, final (in Ha/Bo^2) = -0.0150702
 ----------------------------------------------------------------
             Standard Nuclear Orientation (Angstroms)
    I     Atom           X                Y                Z
 ----------------------------------------------------------------
    1      C       1.8870541128    -0.0457589175     0.5691313693
    2      O       2.4411899926     0.5305530546    -0.3968507591
    3      O       2.3894339111    -0.1353729284     1.7313977873
    4      C       0.4692324455    -0.8166308549     0.5883188595
    5      C      -0.0708607132    -0.7865952991    -1.3990235254
    6      O       0.4916707245    -1.9272258170     1.1872734661
    7      C      -0.8798025946    -0.1617444568     0.5185330149
    8      O      -1.9157586588    -0.7957298877     0.8792907681
    9      C      -1.0816499822     1.3604623429     0.3492799221
   10      H      -0.8254193951     1.7635751047    -0.6368267978
   11      H      -0.4926448390     1.9107104031     1.0979174612
   12      H      -2.1515213688     1.5304887466     0.5435285550
   13      H      -0.5670982033    -1.7499335064    -1.5128126042
   14      H       0.9418620574    -0.7742284024    -1.8121727543
   15      H      -0.6568947384    -0.0107764978    -1.9248331865
 ----------------------------------------------------------------
 Nuclear Repulsion Energy =   444.5916536763 hartrees
 There are       35 alpha and       35 beta electrons
 Requested basis set is 6-31+G(d)
 There are 57 shells and 183 basis functions
 Geometry Optimization Parameters
   NAtoms,    NIC,     NZ,  NCons,   NDum,   NFix, NCnnct, MaxDiis
       15     132       0       0       0       0       0       0


** GEOMETRY OPTIMIZATION IN DELOCALIZED INTERNAL COORDINATES **
   Searching for a Minimum

   Optimization Cycle:   1

                       Coordinates (Angstroms)
     ATOM                X               Y               Z
      1  C         1.8870541128   -0.0457589175    0.5691313693
      2  O         2.4411899926    0.5305530546   -0.3968507591
      3  O         2.3894339111   -0.1353729284    1.7313977873
      4  C         0.4692324455   -0.8166308549    0.5883188595
      5  C        -0.0708607132   -0.7865952991   -1.3990235254
      6  O         0.4916707245   -1.9272258170    1.1872734661
      7  C        -0.8798025946   -0.1617444568    0.5185330149
      8  O        -1.9157586588   -0.7957298877    0.8792907681
      9  C        -1.0816499822    1.3604623429    0.3492799221
     10  H        -0.8254193951    1.7635751047   -0.6368267978
     11  H        -0.4926448390    1.9107104031    1.0979174612
     12  H        -2.1515213688    1.5304887466    0.5435285550
     13  H        -0.5670982033   -1.7499335064   -1.5128126042
     14  H         0.9418620574   -0.7742284024   -1.8121727543
     15  H        -0.6568947384   -0.0107764978   -1.9248331865
   Point Group: c1    Number of degrees of freedom:    39


   Energy is   -494.961490023


 Attempting to Generate Delocalized Internal Coordinates

 39 Hessian modes will be used to form the next step
  Hessian Eigenvalues:
     0.002000    0.002017    0.003423    0.004970    0.023118    0.028303
     0.029101    0.030018    0.035137    0.039884    0.043258    0.045491
     0.059661    0.071526    0.082761    0.084991    0.092702    0.105245
     0.107440    0.116061    0.117311    0.123502    0.150046    0.152956
     0.228567    0.250000    0.250000    0.260340    0.290443    0.315078
     0.325359    0.336186    0.336742    0.343744    0.348593    0.764742
     0.772589    0.789523    0.818039

 Minimum Search - Taking Simple RFO Step
 Searching for Lamda that Minimizes Along All modes
 Value Taken    Lamda =  -0.02111469
 Calculated Step too Large.  Step scaled by  0.574381
 Step Taken.  Stepsize is  0.300000

                             Maximum     Tolerance    Cnvgd?
         Gradient           0.033267      0.000300      NO
         Displacement       0.155376      0.001200      NO
         Energy change     *********      0.000001      NO


 New Cartesian Coordinates Obtained by Inverse Iteration

 Displacement from previous Coordinates is:  0.581962
 ----------------------------------------------------------------
             Standard Nuclear Orientation (Angstroms)
    I     Atom           X                Y                Z
 ----------------------------------------------------------------
    1      C       1.8378247998    -0.0212228678     0.5840851603
    2      O       2.2787596130     0.5924450945    -0.4226875152
    3      O       2.3520605946    -0.0019525095     1.7450462854
    4      C       0.4559793407    -0.8501240450     0.5980771308
    5      C      -0.0728234201    -0.8084203438    -1.4008002263
    6      O       0.5045405509    -1.9964808889     1.1238983948
    7      C      -0.8860146874    -0.1800568139     0.5231490950
    8      O      -1.9450816907    -0.7876320659     0.8431970723
    9      C      -1.0271106669     1.3510639519     0.3658492059
   10      H      -0.7358633097     1.7475518530    -0.6137583627
   11      H      -0.4231624113     1.8680649183     1.1262452018
   12      H      -2.0880817742     1.5756415133     0.5417325101
   13      H      -0.5762370316    -1.7721381463    -1.5180513894
   14      H       0.9475744459    -0.8054979306    -1.7956107933
   15      H      -0.6435716025    -0.0194486350    -1.9182201933
 ----------------------------------------------------------------
 Nuclear Repulsion Energy =   445.7051608716 hartrees
 There are       35 alpha and       35 beta electrons







































Eigenvalues after right structure
 -0.0288357 -0.0000000 -0.0000000 0.0000000 0.0000000 0.0000000 0.0000512 0.0019247 0.0034204 0.0108795 0.0128504 0.0177104 0.0271565 0.0297542 0.0378233 0.0510799 0.0555892 0.0662478 0.0819189 0.0821320 0.0978865 0.1227588 0.1283696 0.1363227 0.1409039 0.1507232 0.1706327 0.1918778 0.2177935 0.2499646 0.2855091 0.3088221 0.3234141 0.5253910 0.7317047 0.7482706 0.9130066 0.9366044 0.9531889 0.9985569 1.0484893 1.3503825 1.7767987 1.8545413 2.1803274
Archival summary:
1\1\bt2600-16\JobtypUnspecified\ProcedureUnspecified\6-31+G*\456(2-,1)\emavera\WedApr2616:05:212017WedApr2616:05:212017\0\\#,JobtypUnspecified,ProcedureUnspecified,6-31+G*,\\-2,1\C\O,1,1.26213\C,1,1.50185,2,117.413\O,3,1.26222,1,121.489,2,7.19221,0\C,3,1.54563,1,121.912,2,-158.744,0\H,5,1.0962,3,115.15,1,-70.5304,0\H,5,1.09865,3,105.924,1,168.931,0\H,5,1.10011,3,110.187,1,51.3332,0\C,1,1.61145,2,115.965,3,-157.6,0\O,9,1.25881,1,123.923,2,-133.992,0\O,9,1.2699,1,110.311,2,50.647,0\C,1,2.06806,2,115.52,3,83.7403,0\H,12,1.09358,1,101.746,2,-20.8402,0\H,12,1.09412,1,96.336,2,94.4333,0\H,12,1.1027,1,126.892,2,-147.194,0\\\@

 Total job time:  11872.75s(wall), 11894.46s(cpu) 
 Wed Apr 26 16:05:21 2017

        *************************************************************
        *                                                           *
        *  Thank you very much for using Q-Chem.  Have a nice day.  *
        *                                                           *
        *************************************************************


0 sent ACK to 0 
now end server 0 ... 
cleanup process ... done
