15
image #: 1 Energy = -495.00165
C 1.66040   0.06739   0.48250   
O 2.57693   0.10088   -0.39017  
O 1.65377   0.69329   1.58908   
C 0.38700   -0.88681  0.20370   
C 0.07294   -0.86069  -1.35827  
O 0.56057   -2.14022  0.62585   
C -0.84458  -0.14028  0.82511   
O -1.70122  -0.66506  1.53226   
C -1.05240  1.34931   0.46796   
H -0.24348  1.76434   -0.13752  
H -1.11397  1.91856   1.40337   
H -2.01093  1.45203   -0.06682  
H -0.77939  -1.53178  -1.54671  
H 0.97121   -1.25696  -1.84260  
H -0.13682  0.13599   -1.78776  
15
image #: 2 Energy = -494.99373
C 1.71262   0.04042   0.51495   
O 2.60137   0.14884   -0.39872  
O 1.77333   0.55946   1.66140   
C 0.41356   -0.88385  0.27690   
C 0.04121   -0.84528  -1.36488  
O 0.58208   -2.10164  0.78843   
C -0.85917  -0.16592  0.76956   
O -1.74548  -0.69966  1.37672   
C -1.05981  1.34408   0.42504   
H -0.34127  1.78705   -0.26990  
H -0.99246  1.91252   1.36634   
H -2.06934  1.46380   0.02374   
H -0.74936  -1.58058  -1.53640  
H 0.95856   -1.14188  -1.85173  
H -0.27876  0.12606   -1.84412  
15
image #: 3 Energy = -494.98253
C 1.76337   0.01527   0.52777   
O 2.60353   0.21722   -0.40622  
O 1.90170   0.41428   1.71921   
C 0.43288   -0.87825  0.34744   
C 0.00812   -0.82345  -1.37280  
O 0.58148   -2.05470  0.92548   
C -0.85066  -0.16814  0.69972   
O -1.80661  -0.74622  1.25026   
C -1.06287  1.34037   0.39464   
H -0.45175  1.79750   -0.38968  
H -0.86059  1.90983   1.31562   
H -2.11778  1.48070   0.13998   
H -0.70785  -1.62967  -1.53093  
H 0.95399   -1.03180  -1.85835  
H -0.40331  0.09679   -1.88286  
15
image #: 4 Energy = -494.97305
C 1.81778   -0.00065  0.54598   
O 2.56873   0.30380   -0.42065  
O 2.04320   0.25176   1.76468   
C 0.45815   -0.86670  0.41933   
C -0.02609  -0.80196  -1.38493  
O 0.55893   -2.00199  1.01555   
C -0.86802  -0.15852  0.65139   
O -1.85133  -0.77300  1.11600   
C -1.06340  1.34153   0.37660   
H -0.57315  1.79191   -0.49828  
H -0.72265  1.90530   1.24876   
H -2.15518  1.49994   0.27780   
H -0.66154  -1.68330  -1.52717  
H 0.96075   -0.93254  -1.85892  
H -0.50342  0.04853   -1.89249  
15
image #: 5 Energy = -494.96569
C 1.84785   -0.02633  0.56589   
O 2.52155   0.41655   -0.42456  
O 2.20723   0.06871   1.77037   
C 0.47118   -0.83325  0.49629   
C -0.04196  -0.79719  -1.39473  
O 0.52590   -1.96985  1.10153   
C -0.87810  -0.15765  0.58778   
O -1.89087  -0.78915  0.99592   
C -1.07780  1.35028   0.36003   
H -0.70296  1.77661   -0.58079  
H -0.59478  1.90931   1.17446   
H -2.16047  1.51781   0.42058   
H -0.61054  -1.72362  -1.52217  
H 0.95395   -0.84496  -1.84441  
H -0.58859  0.01468   -1.90514  
15
image #: 6 Energy = -494.96146
C 1.88706   -0.04576  0.56913   
O 2.44120   0.53056   -0.39685  
O 2.38945   -0.13537  1.73141   
C 0.46923   -0.81664  0.58832   
C -0.07086  -0.78660  -1.39903  
O 0.49167   -1.92724  1.18728   
C -0.87981  -0.16175  0.51854   
O -1.91577  -0.79573  0.87930   
C -1.08166  1.36047   0.34928   
H -0.82542  1.76358   -0.63683  
H -0.49265  1.91072   1.09792   
H -2.15153  1.53050   0.54353   
H -0.56710  -1.74994  -1.51282  
H 0.94187   -0.77423  -1.81218  
H -0.65690  -0.01078  -1.92484  
15
image #: 7 Energy = -494.96395
C 1.92101   -0.07982  0.60247   
O 2.34843   0.64012   -0.36385  
O 2.57176   -0.34537  1.63711   
C 0.47302   -0.79147  0.68995   
C -0.11715  -0.76149  -1.39972  
O 0.46146   -1.88718  1.28280   
C -0.87348  -0.16532  0.43816   
O -1.93217  -0.80198  0.76773   
C -1.07633  1.36591   0.34141   
H -0.92551  1.75957   -0.67325  
H -0.41715  1.91107   1.02898   
H -2.13171  1.53216   0.63472   
H -0.54068  -1.76666  -1.49783  
H 0.92389   -0.71586  -1.76081  
H -0.71107  -0.03280  -1.94987  
15
image #: 8 Energy = -494.97533
C 1.95357   -0.10256  0.62712   
O 2.22970   0.70776   -0.30632  
O 2.74845   -0.52987  1.52801   
C 0.48987   -0.75490  0.81566   
C -0.18631  -0.73276  -1.39412  
O 0.44608   -1.85563  1.37935   
C -0.84464  -0.18288  0.33605   
O -1.93214  -0.81201  0.64660   
C -1.06471  1.36445   0.32391   
H -0.99177  1.77278   -0.69337  
H -0.35743  1.90832   0.97446   
H -2.09233  1.51749   0.69104   
H -0.54393  -1.76792  -1.47479  
H 0.88046   -0.66145  -1.67918  
H -0.76910  -0.04416  -1.99310  
15
image #: 9 Energy = -494.98976
C 1.99644   -0.13123  0.64646   
O 2.15578   0.71453   -0.28599  
O 2.83179   -0.55684  1.47998   
C 0.51683   -0.75588  0.88178   
C -0.27310  -0.69373  -1.34938  
O 0.45816   -1.83481  1.46566   
C -0.78663  -0.21444  0.21597   
O -1.90825  -0.83140  0.56752   
C -1.03438  1.35770   0.30084   
H -0.97041  1.82007   -0.69526  
H -0.34102  1.88382   0.98225   
H -2.07214  1.47909   0.66589   
H -0.60929  -1.73440  -1.45507  
H 0.80538   -0.64322  -1.59150  
H -0.80678  -0.04067  -2.04603  
15
image #: 10 Energy = -494.98889
C 1.99760   -0.16656  0.61498   
O 2.18548   0.79372   -0.18842  
O 2.85212   -0.79246  1.29446   
C 0.49865   -0.73046  0.91147   
C -0.25576  -0.67430  -1.34730  
O 0.41264   -1.73544  1.60678   
C -0.78821  -0.21250  0.20578   
O -1.90835  -0.84140  0.55033   
C -1.05263  1.35676   0.30564   
H -1.08719  1.79711   -0.70243  
H -0.31107  1.90460   0.91522   
H -2.05958  1.47224   0.75193   
H -0.54004  -1.72867  -1.46465  
H 0.81805   -0.59616  -1.60266  
H -0.81079  -0.05522  -2.06011  
15
image #: 11 Energy = -494.98853
C 1.98561   -0.19585  0.60090   
O 2.23247   0.85915   -0.06415  
O 2.82257   -1.00487  1.07843   
C 0.48118   -0.70126  0.94068   
C -0.23522  -0.65562  -1.34693  
O 0.37557   -1.63339  1.73462   
C -0.79020  -0.21541  0.19841   
O -1.90728  -0.85244  0.53969   
C -1.06434  1.35108   0.30921   
H -1.21417  1.76233   -0.70132  
H -0.27808  1.92769   0.82312   
H -2.02369  1.46889   0.85460   
H -0.45730  -1.72665  -1.47360  
H 0.83119   -0.53519  -1.62157  
H -0.82075  -0.07019  -2.07157  
15
image #: 12 Energy = -494.98754
C 1.96229   -0.22237  0.59059   
O 2.30362   0.89732   0.09376   
O 2.74596   -1.17264  0.85881   
C 0.46457   -0.67954  0.95173   
C -0.21154  -0.63524  -1.35773  
O 0.34265   -1.51298  1.85512   
C -0.79802  -0.22430  0.20272   
O -1.91737  -0.87629  0.54193   
C -1.07562  1.33398   0.30863   
H -1.35707  1.71583   -0.68627  
H -0.24736  1.95454   0.69428   
H -1.94423  1.46771   0.97461   
H -0.35600  -1.71917  -1.48265  
H 0.84852   -0.44845  -1.65505  
H -0.83261  -0.09096  -2.07218  
15
image #: 13 Energy = -494.98585
C 1.93987   -0.25361  0.57844   
O 2.37272   0.89449   0.27055   
O 2.66307   -1.27830  0.67477   
C 0.44379   -0.65639  0.94975   
C -0.16822  -0.61365  -1.36332  
O 0.31435   -1.37828  1.96233   
C -0.83439  -0.25819  0.19504   
O -1.92868  -0.91027  0.54939   
C -1.06546  1.31080   0.29932   
H -1.49982  1.66263   -0.64898  
H -0.22718  1.97858   0.53450   
H -1.82080  1.46607   1.09444   
H -0.25372  -1.69999  -1.48930  
H 0.85050   -0.33354  -1.69143  
H -0.85717  -0.11431  -2.06659  
15
image #: 14 Energy = -494.99850
C 1.93385   -0.29684  0.58681   
O 2.38348   0.87559   0.42747   
O 2.61976   -1.35644  0.52528   
C 0.42986   -0.61875  0.98517   
C -0.18736  -0.58198  -1.36659  
O 0.29753   -1.23768  2.06982   
C -0.80798  -0.27706  0.16209   
O -1.92488  -0.94604  0.50275   
C -1.05869  1.29471   0.28804   
H -1.62828  1.61278   -0.59619  
H -0.19328  1.96963   0.37313   
H -1.67782  1.45592   1.17929   
H -0.16974  -1.67513  -1.49504  
H 0.82587   -0.20695  -1.68393  
H -0.90055  -0.14836  -2.06513  
15
image #: 15 Energy = -495.01019
C 1.92490   -0.34425  0.61160   
O 2.38789   0.83486   0.56267   
O 2.57803   -1.39877  0.40841   
C 0.43564   -0.60874  1.04556   
C -0.19627  -0.55009  -1.37242  
O 0.27354   -1.06089  2.15121   
C -0.79723  -0.28633  0.13599   
O -1.90255  -0.98757  0.43597   
C -1.04048  1.27295   0.27182   
H -1.73307  1.56520   -0.52866  
H -0.16372  1.93782   0.21823   
H -1.52736  1.44373   1.23684   
H -0.08650  -1.63683  -1.50680  
H 0.77098   -0.07324  -1.66162  
H -0.95807  -0.18614  -2.06187  
15
image #: 16 Energy = -495.01844
C 1.93140   -0.39111  0.64808   
O 2.37094   0.79613   0.67742   
O 2.54678   -1.44258  0.31541   
C 0.45266   -0.57249  1.09979   
C -0.22240  -0.51556  -1.37334  
O 0.23593   -0.88619  2.26869   
C -0.75436  -0.30142  0.08784   
O -1.85746  -1.02379  0.33253   
C -1.01796  1.25147   0.25295   
H -1.81599  1.52404   -0.45671  
H -0.12774  1.87360   0.07604   
H -1.38750  1.42986   1.27138   
H -0.00333  -1.57980  -1.52571  
H 0.68106   0.06576   -1.61262  
H -1.03203  -0.22792  -2.06175  
