
Running Job 1 of 1 prod_g.qcin
qchem prod_g.qcin_41177.0 /tmp/prod_g.qcin/ 1
/programs/x86_64/lib/qchem-4.3.2/bin/mpi/mpirun_qchem -machinefile /var/spool/torque/aux//113230.vali -np 1 /programs/x86_64/lib/qchem-4.3.2/exe/qcprog.exe prod_g.qcin_41177.0 /tmp/prod_g.qcin/

Process 0 of 1 is on bt2600-16.csail.mit.edu - thread support 0
initial socket setup ...start
initial socket setup ...done 
now start server 0 ... 

cmd = ssh thor /programs/x86_64/lib/qchem-4.3.2/bin/get_hostid 1841471892 > /tmp/prod_g.qcin/lic.dat
                  Welcome to Q-Chem
     A Quantum Leap Into The Future Of Chemistry


 Q-Chem 4.3, Q-Chem, Inc., Pleasanton, CA (2015)

 Y. Shao,  Z. Gan,  E. Epifanovsky,  A. T. B. Gilbert,  M. Wormit,  
 J. Kussmann,  A. W. Lange,  A. Behn,  J. Deng,  X. Feng,  D. Ghosh,  
 M. Goldey,  P. R. Horn,  L. D. Jacobson,  I. Kaliman,  R. Z. Khaliullin,  
 T. Kus,  A. Landau,  J. Liu,  E. I. Proynov,  Y. M. Rhee,  R. M. Richard,  
 M. A. Rohrdanz,  R. P. Steele,  E. J. Sundstrom,  H. L. Woodcock III,  
 P. M. Zimmerman,  D. Zuev,  B. Albrecht,  E. Alguire,  B. Austin,  
 S. A. Baeppler,  G. J. O. Beran,  Y. A. Bernard,  E. Berquist,  
 K. Brandhorst,  K. B. Bravaya,  S. T. Brown,  D. Casanova,  C.-M. Chang,  
 Y. Chen,  S. H. Chien,  K. D. Closser,  D. L. Crittenden,  M. Diedenhofen,  
 R. A. DiStasio Jr.,  H. Do,  A. D. Dutoi,  R. G. Edgar,  P.-T. Fang,  
 S. Fatehi,  Q. Feng,  L. Fusti-Molnar,  A. Ghysels,  
 A. Golubeva-Zadorozhnaya,  J. Gomes,  A. Gunina,  M. W. D. Hanson-Heine,  
 P. H. P. Harbach,  A. W. Hauser,  E. G. Hohenstein,  Z. C. Holden,  K. Hui,  
 T.-C. Jagau,  H. Ji,  B. Kaduk,  K. Khistyaev,  Jaehoon Kim,  Jihan Kim,  
 R. A. King,  P. Klunzinger,  D. Kosenkov,  T. Kowalczyk,  C. M. Krauter,  
 K. U. Lao,  A. Laurent,  K. V. Lawler,  S. Lehtola,  S. V. Levchenko,  
 C. Y. Lin,  Y.-S. Lin,  F. Liu,  E. Livshits,  R. C. Lochan,  A. Luenser,  
 P. Manohar,  S. F. Manzer,  S.-P. Mao,  N. Mardirossian,  A. V. Marenich,  
 L. A. Martinez-Martinez,  S. A. Maurer,  N. J. Mayhall,  K. Nanda,  
 C. M. Oana,  R. Olivares-Amaya,  D. P. O'Neill,  J. A. Parkhill,  
 T. M. Perrine,  R. Peverati,  P. A. Pieniazek,  F. Plasser,  A. Prociuk,  
 D. R. Rehn,  E. Rosta,  N. J. Russ,  N. Sergueev,  S. M. Sharada,  
 S. Sharma,  D. W. Small,  A. Sodt,  T. Stauch,  T. Stein,  D. Stuck,  
 Y.-C. Su,  A. J. W. Thom,  T. Tsuchimochi,  L. Vogt,  O. Vydrov,  T. Wang,  
 M. A. Watson,  J. Wenzel,  A. White,  C. F. Williams,  V. Vanovschi,  
 S. Yeganeh,  S. R. Yost,  Z.-Q. You,  I. Y. Zhang,  X. Zhang,  Y. Zhao,  
 B. R. Brooks,  G. K. L. Chan,  D. M. Chipman,  C. J. Cramer,  
 W. A. Goddard III,  M. S. Gordon,  W. J. Hehre,  A. Klamt,  
 H. F. Schaefer III,  M. W. Schmidt,  C. D. Sherrill,  D. G. Truhlar,  
 A. Warshel,  X. Xu,  A. Aspuru-Guzik,  R. Baer,  A. T. Bell,  N. A. Besley,  
 J.-D. Chai,  A. Dreuw,  B. D. Dunietz,  T. R. Furlani,  S. R. Gwaltney,  
 C.-P. Hsu,  Y. Jung,  J. Kong,  D. S. Lambrecht,  W. Liang,  C. Ochsenfeld,  
 V. A. Rassolov,  L. V. Slipchenko,  J. E. Subotnik,  T. Van Voorhis,  
 J. M. Herbert,  A. I. Krylov,  P. M. W. Gill,  M. Head-Gordon

 Contributors to earlier versions of Q-Chem not listed above: 
 R. D. Adamson,  J. Baker,  E. F. C. Byrd,  A. K. Chakraborty,  C.-L. Cheng,  
 H. Dachsel,  R. J. Doerksen,  G. Hawkins,  A. Heyden,  S. Hirata,  
 G. Kedziora,  F. J. Keil,  C. Kelley,  P. P. Korambath,  W. Kurlancheek,  
 A. M. Lee,  M. S. Lee,  D. Liotard,  I. Lotan,  P. E. Maslen,  N. Nair,  
 D. Neuhauser,  R. Olson,  B. Peters,  J. Ritchie,  N. E. Schultz,  
 N. Shenvi,  A. C. Simmonett,  K. S. Thanthiriwatte,  Q. Wu,  W. Zhang

 Please cite Q-Chem as follows:
 Y. Shao et al., Mol. Phys. 113, 184-215 (2015)
 DOI: 10.1080/00268976.2014.952696

 Q-Chem 4.3.0 for Intel X86 Linux

 Parts of Q-Chem use Armadillo 5.200.1 (Boston Tea Smuggler).
 http://arma.sourceforge.net/

 Q-Chem begins on Sun Apr 23 17:53:43 2017  

Host: 
0

     Scratch files written to /tmp/prod_g.qcin//
 Oct1215 13750_ 19228  19214 4150   
 Parallel job on  1  processors
Processing $rem in /programs/x86_64/lib/qchem-4.3.2/config/preferences.
 MEM_TOTAL  2000 

Checking the input file for inconsistencies... 	...done.

--------------------------------------------------------------
User input:
--------------------------------------------------------------
$rem
JOBTYPE Opt
EXCHANGE HF
BASIS 6-31+G(d)
GUI=2
pdb_print 2
NBO TRUE
$end

$comment
product
$end

$molecule
-2 1
C        3.52200       -1.27800        2.47300
O        4.59900       -1.30300        1.83000
O        3.34100       -1.58600        3.73300
C        2.33500       -0.63100        1.79800
C        1.98400       -1.87300       -0.50400
O        1.34900       -0.20700        2.50100
C        2.12700       -0.48800        0.24600
O        1.05700        0.26200       -0.13700
C        3.36100        0.25500       -0.34100
H        3.14100        0.37800       -1.44100
H        4.31400       -0.45900       -0.37600
H        3.75000        1.22500       -0.00600
H        0.82900       -2.09700       -0.30800
H        2.53400       -2.74800       -0.01400
H        2.31800       -1.80800       -1.52600
$end

--------------------------------------------------------------
 ----------------------------------------------------------------
             Standard Nuclear Orientation (Angstroms)
    I     Atom           X                Y                Z
 ----------------------------------------------------------------
    1      C       1.5993647577     0.2939649477    -0.0636083444
    2      O       1.4717752476     1.5239997604     0.1479059017
    3      O       2.7131774295    -0.3694086323    -0.2495702373
    4      C       0.3685977956    -0.5641231098     0.1155579763
    5      C      -1.5033602411     0.4330402734    -1.4549219810
    6      O       0.4890596794    -1.8256024416     0.3164057545
    7      C      -1.1196230033    -0.0713216741    -0.0059434586
    8      O      -2.0705190829    -0.9817017643     0.3420417958
    9      C      -1.3207498247     1.1093908299     0.9864475856
   10      H      -2.4100301548     1.3912446059     0.8995234154
   11      H      -0.7946307867     2.1001605835     0.5854437784
   12      H      -1.1035675305     1.0927206852     2.0620869105
   13      H      -1.7413323845    -0.6102672514    -1.9817005566
   14      H      -0.6371924413     0.8702440711    -2.0605878805
   15      H      -2.2865697953     1.1718943243    -1.4242220512
 ----------------------------------------------------------------
 Molecular Point Group                 C1    NOp =  1
 Largest Abelian Subgroup              C1    NOp =  1
 Nuclear Repulsion Energy =   444.1807725836 hartrees
 There are       35 alpha and       35 beta electrons
 Requested basis set is 6-31+G(d)
 There are 57 shells and 183 basis functions

 Total QAlloc Memory Limit   2000 MB
 Mega-Array Size        61 MB
 MEM_STATIC part        62 MB
 A cutoff of  1.0D-11 yielded   1539 shell pairs
 There are     16463 function pairs
 
 -------------------------------------------------------
 OpenMP Integral Computing Module                       
 Release: version 1.0, May 2013, Q-Chem Inc. Pittsburgh 
 -------------------------------------------------------
 Integral Job Info:
 Integral job number is                      11
 Integral operator is                         1
 short-range coefficients                     0
 long-range coefficients              100000000
 Omega coefficients                           0
 if combine SR and LR in K                    0
 Integral screening is                        0
 Integral computing path is                   2
 max size of driver memory is            800000
 size of driver memory is                593474
 size of scratch memory is              2260544
 max col of scratch BK array               1296
 max len of scratch array in speh3          155
 max len of scratch index in speh4           18
 max int batch size is                      520
 min int batch size is                       52
 fixed nKL is                                52
 max L of basis functions is                  2
 order of int derivative is                   0
 number of shells is                         57
 number of basis is                         183
 number of cartesian basis is               183
 number of contracted shell pairs          1539
 number of primitive shell pairs           5314
 maxK2 (contraction) of shell pair           36
 max number of K2 of shell pair               1
 max number of CS2 of shell pair            200
 max number of PS2 of shell pair           1200
 mem total for path MDJ                   42942
 -------------------------------------------------------
 Smallest overlap matrix eigenvalue = 2.99E-05

 Scale SEOQF with 1.000000e-01/1.000000e-01/1.000000e-01

 Standard Electronic Orientation quadrupole field applied
 Nucleus-field energy     =     0.0000000077 hartrees
 Guess from superposition of atomic densities
 Warning:  Energy on first SCF cycle will be non-variational
 A restricted Hartree-Fock SCF calculation will be
 performed using Pulay DIIS extrapolation
 SCF converges when DIIS error is below 1.0E-08
 ---------------------------------------
  Cycle       Energy         DIIS Error
 ---------------------------------------
    1    -493.6078692022      4.94E-02
    2    -491.7586395333      9.76E-03
    3    -491.8968568767      8.50E-03
    4    -492.1196418987      8.49E-04
    5    -492.1235401119      4.96E-04
    6    -492.1245432786      1.01E-04
    7    -492.1246632163      5.33E-05
    8    -492.1246940230      2.46E-05
    9    -492.1247002187      1.06E-05
   10    -492.1247014838      4.09E-06
   11    -492.1247016912      1.30E-06
   12    -492.1247017118      6.31E-07
   13    -492.1247017159      2.32E-07
   14    -492.1247017169      1.15E-07
   15    -492.1247017173      6.10E-08
   16    -492.1247017171      2.70E-08
   17    -492.1247017172      1.00E-08
   18    -492.1247017174      3.96E-09 Convergence criterion met
 ---------------------------------------
 SCF time:  CPU 118.27 s  wall 117.79 s
 SCF   energy in the final basis set = -492.1247017174
 Total energy in the final basis set = -492.1247017174
 
 --------------------------------------------------------------
 
                    Orbital Energies (a.u.)
 --------------------------------------------------------------
 
 Alpha MOs
 -- Occupied --
-20.256 -20.219 -20.201 -20.119 -11.046 -11.022 -10.977 -10.954
-10.935  -1.069  -1.030  -0.950  -0.918  -0.701  -0.628  -0.594
 -0.473  -0.369  -0.341  -0.321  -0.303  -0.278  -0.267  -0.247
 -0.242  -0.213  -0.194  -0.167  -0.156  -0.143  -0.103  -0.087
 -0.080  -0.020  -0.015
 -- Virtual --
  0.290   0.297   0.325   0.332   0.355   0.358   0.363   0.364
  0.371   0.389   0.396   0.401   0.407   0.424   0.432   0.442
  0.462   0.474   0.504   0.513   0.567   0.584   0.606   0.609
  0.623   0.631   0.640   0.649   0.656   0.670   0.676   0.690
  0.704   0.705   0.715   0.720   0.727   0.739   0.746   0.753
  0.770   0.785   0.798   0.813   0.818   0.826   0.848   0.892
  0.911   0.981   1.038   1.125   1.160   1.179   1.240   1.248
  1.270   1.274   1.290   1.323   1.358   1.371   1.400   1.417
  1.455   1.469   1.477   1.508   1.545   1.592   1.598   1.627
  1.636   1.668   1.694   1.771   1.808   1.835   1.856   1.881
  1.903   1.908   1.947   1.950   1.977   1.989   2.002   2.013
  2.039   2.051   2.083   2.094   2.148   2.175   2.240   2.248
  2.288   2.311   2.343   2.361   2.392   2.413   2.443   2.453
  2.492   2.503   2.544   2.550   2.573   2.592   2.609   2.632
  2.670   2.682   2.699   2.744   2.755   2.817   2.824   2.866
  2.924   2.946   3.008   3.047   3.060   3.093   3.172   3.187
  3.284   3.323   3.367   3.411   3.447   3.628   3.660   3.768
  3.823   3.866   3.905   4.850   4.908   4.990   5.022   5.086
  5.248   5.285   5.420   5.497
 --------------------------------------------------------------
 
          Ground-State Mulliken Net Atomic Charges

     Atom                 Charge (a.u.)
  ----------------------------------------
      1 C                     0.521079
      2 O                    -0.688820
      3 O                    -0.791845
      4 C                     0.294970
      5 C                    -0.739450
      6 O                    -0.518237
      7 C                     0.554325
      8 O                    -0.833929
      9 C                    -0.751321
     10 H                     0.154449
     11 H                     0.166101
     12 H                     0.161580
     13 H                     0.186033
     14 H                     0.132903
     15 H                     0.152162
  ----------------------------------------
  Sum of atomic charges =    -2.000000

 -----------------------------------------------------------------
                    Cartesian Multipole Moments
 -----------------------------------------------------------------
    Charge (ESU x 10^10)
                -9.6064
    Dipole Moment (Debye)
         X      -2.0324      Y       3.7419      Z      -1.3071
       Tot       4.4543
    Quadrupole Moments (Debye-Ang)
        XX    -110.7611     XY      -8.7544     YY     -83.1459
        XZ       4.3531     YZ       1.8046     ZZ     -62.4320
    Octopole Moments (Debye-Ang^2)
       XXX     -18.6933    XXY      17.3360    XYY      -1.0934
       YYY      -1.4727    XXZ       0.8836    XYZ      -4.3380
       YYZ      -7.2322    XZZ      12.0880    YZZ      -3.8665
       ZZZ       9.0586
    Hexadecapole Moments (Debye-Ang^3)
      XXXX   -1331.1286   XXXY     -27.6314   XXYY    -293.8025
      XYYY     -11.9507   YYYY    -514.4988   XXXZ      31.7219
      XXYZ      -0.2454   XYYZ       3.7372   YYYZ      -0.6605
      XXZZ    -230.3268   XYZZ       4.8794   YYZZ    -126.1035
      XZZZ      -9.5147   YZZZ       2.6573   ZZZZ    -292.9906
 -----------------------------------------------------------------
 Calculating analytic gradient of the SCF energy
 Gradient of SCF Energy
            1           2           3           4           5           6
    1  -0.0926820  -0.0065071   0.0706048   0.0372850  -0.0554417  -0.0041548
    2   0.0032987   0.0354798  -0.0501199   0.1431970   0.0510600  -0.1191188
    3  -0.0190694   0.0166128  -0.0009899   0.0034486   0.0309710   0.0131487
            7           8           9          10          11          12
    1   0.0370820  -0.0197153   0.0088064  -0.0192569   0.0163501  -0.0060025
    2  -0.0015906   0.0006922  -0.0944784   0.0133495   0.0426116   0.0195275
    3  -0.0342424   0.0079926   0.0337159  -0.0060610  -0.0209724   0.0104067
           13          14          15
    1   0.0022475   0.0209908   0.0103940
    2  -0.0560877   0.0055793   0.0065998
    3  -0.0190087  -0.0175680   0.0016156
 Max gradient component =       1.432E-01
 RMS gradient           =       4.274E-02
 Gradient time:  CPU 56.65 s  wall 56.66 s
 Geometry Optimization Parameters
   NAtoms,    NIC,     NZ,  NCons,   NDum,   NFix, NCnnct, MaxDiis
       15      96       0       0       0       0       0       0


** GEOMETRY OPTIMIZATION IN DELOCALIZED INTERNAL COORDINATES **
   Searching for a Minimum

   Optimization Cycle:   1

                       Coordinates (Angstroms)
     ATOM                X               Y               Z
      1  C         1.5993647577    0.2939649477   -0.0636083444
      2  O         1.4717752476    1.5239997604    0.1479059017
      3  O         2.7131774295   -0.3694086323   -0.2495702373
      4  C         0.3685977956   -0.5641231098    0.1155579763
      5  C        -1.5033602411    0.4330402734   -1.4549219810
      6  O         0.4890596794   -1.8256024416    0.3164057545
      7  C        -1.1196230033   -0.0713216741   -0.0059434586
      8  O        -2.0705190829   -0.9817017643    0.3420417958
      9  C        -1.3207498247    1.1093908299    0.9864475856
     10  H        -2.4100301548    1.3912446059    0.8995234154
     11  H        -0.7946307867    2.1001605835    0.5854437784
     12  H        -1.1035675305    1.0927206852    2.0620869105
     13  H        -1.7413323845   -0.6102672514   -1.9817005566
     14  H        -0.6371924413    0.8702440711   -2.0605878805
     15  H        -2.2865697953    1.1718943243   -1.4242220512
   Point Group: c1    Number of degrees of freedom:    39


   Energy is   -492.124701717


 Attempting to Generate Delocalized Internal Coordinates

 39 Hessian modes will be used to form the next step
  Hessian Eigenvalues:
     0.002000    0.002000    0.002000    0.004534    0.007720    0.009651
     0.035488    0.048710    0.050482    0.058294    0.063429    0.066248
     0.078804    0.160000    0.160000    0.160000    0.160000    0.160000
     0.160000    0.174708    0.191539    0.249641    0.250000    0.250000
     0.250000    0.251367    0.252033    0.253103    0.258318    0.271943
     0.292703    0.307165    0.312475    0.339632    0.363401    0.526155
     0.645787    0.721335    0.815627

 Minimum Search - Taking Simple RFO Step
 Searching for Lamda that Minimizes Along All modes
 Value Taken    Lamda =  -0.08021455
 Calculated Step too Large.  Step scaled by  0.559556
 Step Taken.  Stepsize is  0.300000

                             Maximum     Tolerance    Cnvgd?
         Gradient           0.080940      0.000300      NO
         Displacement       0.109500      0.001200      NO
         Energy change     *********      0.000001      NO


 New Cartesian Coordinates Obtained by Inverse Iteration

 Displacement from previous Coordinates is:  0.414904
 ----------------------------------------------------------------
             Standard Nuclear Orientation (Angstroms)
    I     Atom           X                Y                Z
 ----------------------------------------------------------------
    1      C       1.5899719258     0.2835846727    -0.0637974612
    2      O       1.4571662423     1.5124422909     0.0574995477
    3      O       2.6677370047    -0.3412796875    -0.3339657751
    4      C       0.3415174467    -0.5836863450     0.1354377987
    5      C      -1.4530116888     0.4192182606    -1.4402231750
    6      O       0.4898819587    -1.7951982848     0.3492860338
    7      C      -1.1399797608    -0.0734529790     0.0188331278
    8      O      -2.0818169527    -0.9888206076     0.3486507418
    9      C      -1.3464228579     1.1332560566     0.9830779991
   10      H      -2.4202638694     1.4082724763     0.9029005113
   11      H      -0.8156359786     2.0840217787     0.6221686661
   12      H      -1.1213140915     1.0543837793     2.0480182046
   13      H      -1.6994193237    -0.5560094518    -1.9807928431
   14      H      -0.5760865085     0.8476972762    -1.9938114369
   15      H      -2.2379238817     1.1598059724    -1.4384233311
 ----------------------------------------------------------------
 Molecular Point Group                 C1    NOp =  1
 Largest Abelian Subgroup              C1    NOp =  1
 Nuclear Repulsion Energy =   447.5337111432 hartrees
 There are       35 alpha and       35 beta electrons
 Applying Cartesian multipole field
    Component          Value
    ---------          -----
     (2,0,0)        1.00000E-11
     (0,2,0)        2.00000E-11
     (0,0,2)       -3.00000E-11
 Nucleus-field energy     =     0.0000000076 hartrees
 Requested basis set is 6-31+G(d)
 There are 57 shells and 183 basis functions
 A cutoff of  1.0D-11 yielded   1541 shell pairs
 There are     16485 function pairs
 Smallest overlap matrix eigenvalue = 2.78E-05
 Guess MOs from SCF MO coefficient file
 Reading MOs from coefficient file
 Reading MOs from coefficient file
 A restricted Hartree-Fock SCF calculation will be
 performed using Pulay DIIS extrapolation
 SCF converges when DIIS error is below 1.0E-08
Geometry optimization detected.  Setting ReadMinima to 0
Setting SaveMinima to 0
 ---------------------------------------
  Cycle       Energy         DIIS Error
 ---------------------------------------
    1    -492.2553332907      3.19E-03
    2    -492.1584871454      5.05E-04
    3    -492.1599604733      2.47E-04
    4    -492.1602316257      8.44E-05
    5    -492.1602895394      3.29E-05
    6    -492.1602988203      1.37E-05
    7    -492.1603012750      6.57E-06
    8    -492.1603020716      2.98E-06
    9    -492.1603022296      1.06E-06
   10    -492.1603022481      5.08E-07
   11    -492.1603022536      2.72E-07
   12    -492.1603022560      1.47E-07
   13    -492.1603022567      6.53E-08
   14    -492.1603022571      1.99E-08
   15    -492.1603022570      6.71E-09 Convergence criterion met
 ---------------------------------------
 SCF time:  CPU 101.88 s  wall 101.37 s
 SCF   energy in the final basis set = -492.1603022570
 Total energy in the final basis set = -492.1603022570
 
 --------------------------------------------------------------
 
                    Orbital Energies (a.u.)
 --------------------------------------------------------------
 
 Alpha MOs
 -- Occupied --
-20.252 -20.207 -20.196 -20.118 -11.034 -11.011 -10.969 -10.939
-10.926  -1.079  -1.048  -0.958  -0.919  -0.703  -0.631  -0.582
 -0.468  -0.369  -0.342  -0.326  -0.299  -0.281  -0.273  -0.251
 -0.246  -0.220  -0.200  -0.168  -0.167  -0.147  -0.100  -0.084
 -0.075  -0.016  -0.014
 -- Virtual --
  0.292   0.297   0.325   0.334   0.355   0.359   0.364   0.365
  0.371   0.390   0.399   0.408   0.411   0.424   0.431   0.442
  0.462   0.470   0.507   0.516   0.579   0.591   0.607   0.614
  0.629   0.643   0.646   0.651   0.662   0.675   0.675   0.690
  0.707   0.709   0.716   0.728   0.731   0.743   0.754   0.760
  0.771   0.788   0.805   0.816   0.823   0.842   0.853   0.895
  0.927   1.013   1.056   1.137   1.163   1.191   1.235   1.255
  1.272   1.278   1.293   1.337   1.363   1.387   1.402   1.416
  1.454   1.480   1.492   1.522   1.552   1.599   1.612   1.629
  1.642   1.678   1.712   1.776   1.827   1.843   1.865   1.888
  1.906   1.909   1.944   1.949   1.976   1.991   2.010   2.017
  2.047   2.057   2.083   2.093   2.150   2.175   2.248   2.259
  2.291   2.312   2.339   2.372   2.392   2.439   2.451   2.468
  2.503   2.506   2.553   2.576   2.588   2.611   2.630   2.657
  2.676   2.701   2.713   2.761   2.793   2.833   2.872   2.906
  2.949   2.974   3.018   3.068   3.082   3.119   3.194   3.218
  3.305   3.333   3.394   3.435   3.483   3.689   3.698   3.809
  3.840   3.911   3.931   4.874   4.925   5.014   5.041   5.099
  5.259   5.319   5.434   5.530
 --------------------------------------------------------------
 
          Ground-State Mulliken Net Atomic Charges

     Atom                 Charge (a.u.)
  ----------------------------------------
      1 C                     0.521982
      2 O                    -0.706926
      3 O                    -0.787070
      4 C                     0.309203
      5 C                    -0.720640
      6 O                    -0.509075
      7 C                     0.494196
      8 O                    -0.842018
      9 C                    -0.734218
     10 H                     0.155518
     11 H                     0.179712
     12 H                     0.157332
     13 H                     0.190363
     14 H                     0.147305
     15 H                     0.144336
  ----------------------------------------
  Sum of atomic charges =    -2.000000

 -----------------------------------------------------------------
                    Cartesian Multipole Moments
 -----------------------------------------------------------------
    Charge (ESU x 10^10)
                -9.6064
    Dipole Moment (Debye)
         X      -1.7385      Y       3.5039      Z      -0.9418
       Tot       4.0232
    Quadrupole Moments (Debye-Ang)
        XX    -109.7922     XY      -9.3471     YY     -82.4370
        XZ       5.6876     YZ       2.2909     ZZ     -62.2129
    Octopole Moments (Debye-Ang^2)
       XXX     -11.5505    XXY      16.5878    XYY      -0.0615
       YYY      -1.8053    XXZ       3.3326    XYZ      -3.8182
       YYZ      -6.4031    XZZ      12.3519    YZZ      -4.0915
       ZZZ       8.9116
    Hexadecapole Moments (Debye-Ang^3)
      XXXX   -1301.7314   XXXY     -32.8116   XXYY    -290.0584
      XYYY     -15.7292   YYYY    -503.5967   XXXZ      49.2031
      XXYZ       2.3900   XYYZ       8.1671   YYYZ       3.8753
      XXZZ    -227.4254   XYZZ       4.6562   YYZZ    -124.9258
      XZZZ       3.3349   YZZZ       4.5609   ZZZZ    -288.4663
 -----------------------------------------------------------------
 Calculating analytic gradient of the SCF energy
 Gradient of SCF Energy
            1           2           3           4           5           6
    1  -0.0577954  -0.0006264   0.0417745   0.0211268  -0.0411707  -0.0016612
    2   0.0006339   0.0121800  -0.0242133   0.0863966   0.0327887  -0.0658211
    3   0.0103655   0.0012846  -0.0084902  -0.0027557   0.0212331   0.0069062
            7           8           9          10          11          12
    1   0.0296689  -0.0143886   0.0017903  -0.0100762   0.0090117  -0.0038224
    2  -0.0028536   0.0001379  -0.0655960   0.0107544   0.0295291   0.0146194
    3  -0.0240063   0.0046944   0.0246957  -0.0046744  -0.0126629   0.0051173
           13          14          15
    1   0.0037350   0.0135366   0.0088971
    2  -0.0342427   0.0012793   0.0044074
    3  -0.0121168  -0.0117464   0.0021560
 Max gradient component =       8.640E-02
 RMS gradient           =       2.646E-02
 Gradient time:  CPU 56.76 s  wall 56.75 s
 Geometry Optimization Parameters
   NAtoms,    NIC,     NZ,  NCons,   NDum,   NFix, NCnnct, MaxDiis
       15      96       0       0       0       0       0       0

 Cartesian Hessian Update
 Hessian Updated using BFGS Update


** GEOMETRY OPTIMIZATION IN DELOCALIZED INTERNAL COORDINATES **
   Searching for a Minimum

   Optimization Cycle:   2

                       Coordinates (Angstroms)
     ATOM                X               Y               Z
      1  C         1.5899719258    0.2835846727   -0.0637974612
      2  O         1.4571662423    1.5124422909    0.0574995477
      3  O         2.6677370047   -0.3412796875   -0.3339657751
      4  C         0.3415174467   -0.5836863450    0.1354377987
      5  C        -1.4530116888    0.4192182606   -1.4402231750
      6  O         0.4898819587   -1.7951982848    0.3492860338
      7  C        -1.1399797608   -0.0734529790    0.0188331278
      8  O        -2.0818169527   -0.9888206076    0.3486507418
      9  C        -1.3464228579    1.1332560566    0.9830779991
     10  H        -2.4202638694    1.4082724763    0.9029005113
     11  H        -0.8156359786    2.0840217787    0.6221686661
     12  H        -1.1213140915    1.0543837793    2.0480182046
     13  H        -1.6994193237   -0.5560094518   -1.9807928431
     14  H        -0.5760865085    0.8476972762   -1.9938114369
     15  H        -2.2379238817    1.1598059724   -1.4384233311
   Point Group: c1    Number of degrees of freedom:    39


   Energy is   -492.160302257

 Hessian Updated using BFGS Update

 33 Hessian modes will be used to form the next step
  Hessian Eigenvalues:
     0.001999    0.002008    0.004537    0.007718    0.012119    0.035496
     0.048613    0.050473    0.058007    0.063120    0.068087    0.078286
     0.151000    0.162057    0.175275    0.192481    0.224554    0.249815
     0.250179    0.251328    0.252545    0.258278    0.267562    0.274294
     0.291754    0.306338    0.310022    0.340698    0.363341    0.522484
     0.608129    0.694885    0.832072

 Minimum Search - Taking Simple RFO Step
 Searching for Lamda that Minimizes Along All modes
 Value Taken    Lamda =  -0.04921692
 Calculated Step too Large.  Step scaled by  0.484042
 Step Taken.  Stepsize is  0.300000

                             Maximum     Tolerance    Cnvgd?
         Gradient           0.050802      0.000300      NO
         Displacement       0.135470      0.001200      NO
         Energy change     -0.035601      0.000001      NO


 New Cartesian Coordinates Obtained by Inverse Iteration

 Displacement from previous Coordinates is:  0.293805
 ----------------------------------------------------------------
             Standard Nuclear Orientation (Angstroms)
    I     Atom           X                Y                Z
 ----------------------------------------------------------------
    1      C       1.5648784531     0.2962094437    -0.1190223483
    2      O       1.4294337130     1.5099428403     0.0741851554
    3      O       2.6313024882    -0.3113437574    -0.3175067519
    4      C       0.3153666418    -0.5997339348     0.1284601421
    5      C      -1.4303072604     0.3995855435    -1.4378305513
    6      O       0.4989500418    -1.7646269669     0.3569489116
    7      C      -1.1620954760    -0.0740933519     0.0307604666
    8      O      -2.0901875392    -0.9867866271     0.3707536165
    9      C      -1.3423726452     1.1574419968     0.9673777995
   10      H      -2.4042055184     1.4275051316     0.9119507122
   11      H      -0.8005352717     2.0560132085     0.6267242629
   12      H      -1.0919694227     1.0076633275     2.0161799305
   13      H      -1.6946961785    -0.5154016133    -1.9826356916
   14      H      -0.5508881487     0.8194112148    -1.9521509742
   15      H      -2.2182742126     1.1424487527    -1.4593360715
 ----------------------------------------------------------------
 Molecular Point Group                 C1    NOp =  1
 Largest Abelian Subgroup              C1    NOp =  1
 Nuclear Repulsion Energy =   450.9630154235 hartrees
 There are       35 alpha and       35 beta electrons
 Applying Cartesian multipole field
    Component          Value
    ---------          -----
     (2,0,0)        1.00000E-11
     (0,2,0)        2.00000E-11
     (0,0,2)       -3.00000E-11
 Nucleus-field energy     =     0.0000000074 hartrees
 Requested basis set is 6-31+G(d)
 There are 57 shells and 183 basis functions
 A cutoff of  1.0D-11 yielded   1545 shell pairs
 There are     16504 function pairs
 Smallest overlap matrix eigenvalue = 2.71E-05
 Guess MOs from SCF MO coefficient file
 Reading MOs from coefficient file
 Reading MOs from coefficient file
 A restricted Hartree-Fock SCF calculation will be
 performed using Pulay DIIS extrapolation
 SCF converges when DIIS error is below 1.0E-08
Geometry optimization detected.  Setting ReadMinima to 0
Setting SaveMinima to 0
 ---------------------------------------
  Cycle       Energy         DIIS Error
 ---------------------------------------
    1    -492.2560540036      2.88E-03
    2    -492.1737832970      4.16E-04
    3    -492.1748403360      2.16E-04
    4    -492.1750439730      8.44E-05
    5    -492.1751084149      3.36E-05
    6    -492.1751248474      1.79E-05
    7    -492.1751327393      9.65E-06
    8    -492.1751357005      3.87E-06
    9    -492.1751360719      1.56E-06
   10    -492.1751361185      6.70E-07
   11    -492.1751361268      2.93E-07
   12    -492.1751361282      9.40E-08
   13    -492.1751361283      4.46E-08
   14    -492.1751361281      1.13E-08
   15    -492.1751361284      3.22E-09 Convergence criterion met
 ---------------------------------------
 SCF time:  CPU 102.44 s  wall 101.92 s
 SCF   energy in the final basis set = -492.1751361284
 Total energy in the final basis set = -492.1751361284
 
 --------------------------------------------------------------
 
                    Orbital Energies (a.u.)
 --------------------------------------------------------------
 
 Alpha MOs
 -- Occupied --
-20.249 -20.198 -20.193 -20.116 -11.024 -11.000 -10.961 -10.928
-10.914  -1.093  -1.061  -0.965  -0.921  -0.704  -0.635  -0.570
 -0.462  -0.369  -0.343  -0.329  -0.298  -0.283  -0.279  -0.258
 -0.246  -0.225  -0.206  -0.174  -0.170  -0.151  -0.099  -0.083
 -0.068  -0.013  -0.008
 -- Virtual --
  0.292   0.298   0.325   0.334   0.355   0.360   0.364   0.366
  0.371   0.390   0.400   0.409   0.416   0.429   0.433   0.441
  0.463   0.466   0.512   0.517   0.584   0.596   0.611   0.622
  0.634   0.644   0.655   0.660   0.666   0.673   0.682   0.694
  0.707   0.712   0.720   0.732   0.736   0.745   0.761   0.766
  0.773   0.791   0.806   0.821   0.828   0.850   0.858   0.900
  0.936   1.035   1.066   1.142   1.168   1.193   1.230   1.266
  1.273   1.287   1.299   1.349   1.365   1.394   1.400   1.429
  1.455   1.495   1.503   1.534   1.561   1.606   1.625   1.643
  1.651   1.699   1.734   1.776   1.819   1.844   1.871   1.889
  1.909   1.916   1.941   1.950   1.978   1.995   2.012   2.023
  2.048   2.057   2.091   2.111   2.146   2.173   2.258   2.267
  2.291   2.323   2.338   2.381   2.393   2.445   2.460   2.492
  2.508   2.511   2.566   2.589   2.609   2.617   2.648   2.664
  2.694   2.701   2.727   2.788   2.798   2.877   2.917   2.945
  2.964   3.003   3.022   3.079   3.122   3.143   3.212   3.231
  3.325   3.350   3.421   3.464   3.519   3.719   3.745   3.817
  3.864   3.947   3.971   4.887   4.940   5.030   5.062   5.119
  5.270   5.329   5.456   5.556
 --------------------------------------------------------------
 
          Ground-State Mulliken Net Atomic Charges

     Atom                 Charge (a.u.)
  ----------------------------------------
      1 C                     0.495199
      2 O                    -0.715050
      3 O                    -0.766866
      4 C                     0.355239
      5 C                    -0.687083
      6 O                    -0.505775
      7 C                     0.393185
      8 O                    -0.849255
      9 C                    -0.709589
     10 H                     0.152605
     11 H                     0.195621
     12 H                     0.156840
     13 H                     0.193101
     14 H                     0.152716
     15 H                     0.139111
  ----------------------------------------
  Sum of atomic charges =    -2.000000

 -----------------------------------------------------------------
                    Cartesian Multipole Moments
 -----------------------------------------------------------------
    Charge (ESU x 10^10)
                -9.6064
    Dipole Moment (Debye)
         X      -1.4095      Y       3.2112      Z      -1.2769
       Tot       3.7322
    Quadrupole Moments (Debye-Ang)
        XX    -108.9772     XY      -9.7088     YY     -81.7649
        XZ       5.5471     YZ       2.2890     ZZ     -62.0062
    Octopole Moments (Debye-Ang^2)
       XXX      -4.8471    XXY      15.2530    XYY       1.1421
       YYY      -3.5646    XXZ       1.5382    XYZ      -4.2204
       YYZ      -6.5572    XZZ      13.4312    YZZ      -4.7057
       ZZZ       7.7070
    Hexadecapole Moments (Debye-Ang^3)
      XXXX   -1275.1765   XXXY     -38.3526   XXYY    -285.8645
      XYYY     -19.5949   YYYY    -494.5965   XXXZ      50.2533
      XXYZ       3.0029   XYYZ       8.6789   YYYZ       4.7434
      XXZZ    -223.8840   XYZZ       4.1134   YYZZ    -123.8176
      XZZZ       6.1385   YZZZ       4.3352   ZZZZ    -285.1399
 -----------------------------------------------------------------
 Calculating analytic gradient of the SCF energy
 Gradient of SCF Energy
            1           2           3           4           5           6
    1  -0.0268223   0.0028041   0.0094793   0.0165266  -0.0265397  -0.0030563
    2   0.0025841  -0.0049332  -0.0051576   0.0204467   0.0118041  -0.0078756
    3  -0.0233904   0.0092554   0.0104116   0.0121612   0.0072462  -0.0030159
            7           8           9          10          11          12
    1   0.0195669  -0.0069762   0.0012191  -0.0016962   0.0002578  -0.0015452
    2  -0.0023693   0.0015000  -0.0328933   0.0069050   0.0112526   0.0085419
    3  -0.0174228   0.0031670   0.0140109  -0.0038192  -0.0051332   0.0020838
           13          14          15
    1   0.0056866   0.0050459   0.0060496
    2  -0.0095979  -0.0029337   0.0027263
    3  -0.0019636  -0.0052747   0.0016838
 Max gradient component =       3.289E-02
 RMS gradient           =       1.155E-02
 Gradient time:  CPU 57.37 s  wall 57.37 s
 Geometry Optimization Parameters
   NAtoms,    NIC,     NZ,  NCons,   NDum,   NFix, NCnnct, MaxDiis
       15      96       0       0       0       0       0       0

 Cartesian Hessian Update
 Hessian Updated using BFGS Update


** GEOMETRY OPTIMIZATION IN DELOCALIZED INTERNAL COORDINATES **
   Searching for a Minimum

   Optimization Cycle:   3

                       Coordinates (Angstroms)
     ATOM                X               Y               Z
      1  C         1.5648784531    0.2962094437   -0.1190223483
      2  O         1.4294337130    1.5099428403    0.0741851554
      3  O         2.6313024882   -0.3113437574   -0.3175067519
      4  C         0.3153666418   -0.5997339348    0.1284601421
      5  C        -1.4303072604    0.3995855435   -1.4378305513
      6  O         0.4989500418   -1.7646269669    0.3569489116
      7  C        -1.1620954760   -0.0740933519    0.0307604666
      8  O        -2.0901875392   -0.9867866271    0.3707536165
      9  C        -1.3423726452    1.1574419968    0.9673777995
     10  H        -2.4042055184    1.4275051316    0.9119507122
     11  H        -0.8005352717    2.0560132085    0.6267242629
     12  H        -1.0919694227    1.0076633275    2.0161799305
     13  H        -1.6946961785   -0.5154016133   -1.9826356916
     14  H        -0.5508881487    0.8194112148   -1.9521509742
     15  H        -2.2182742126    1.1424487527   -1.4593360715
   Point Group: c1    Number of degrees of freedom:    39


   Energy is   -492.175136128

 Hessian Updated using BFGS Update

 36 Hessian modes will be used to form the next step
  Hessian Eigenvalues:
     0.001996    0.002000    0.002005    0.004539    0.007716    0.024415
     0.035496    0.049350    0.050491    0.058801    0.063620    0.066717
     0.079532    0.149895    0.160024    0.161804    0.173958    0.192156
     0.243690    0.249901    0.250001    0.251161    0.251583    0.255569
     0.260948    0.266943    0.273482    0.289906    0.303280    0.312826
     0.340718    0.363263    0.523247    0.642335    0.739893    0.857747

 Minimum Search - Taking Simple RFO Step
 Searching for Lamda that Minimizes Along All modes
 Value Taken    Lamda =  -0.02753033
 Calculated Step too Large.  Step scaled by  0.426264
 Step Taken.  Stepsize is  0.300000

                             Maximum     Tolerance    Cnvgd?
         Gradient           0.018825      0.000300      NO
         Displacement       0.104679      0.001200      NO
         Energy change     -0.014834      0.000001      NO


 New Cartesian Coordinates Obtained by Inverse Iteration

 Displacement from previous Coordinates is:  0.468750
 ----------------------------------------------------------------
             Standard Nuclear Orientation (Angstroms)
    I     Atom           X                Y                Z
 ----------------------------------------------------------------
    1      C       1.5529781803     0.2993903032    -0.1016395833
    2      O       1.3766010736     1.5248837949    -0.0430224905
    3      O       2.5800984621    -0.2984646279    -0.4235486368
    4      C       0.2939607737    -0.6133974230     0.1660966383
    5      C      -1.3788988912     0.3969562293    -1.4288705321
    6      O       0.4898913058    -1.7587821366     0.4204278635
    7      C      -1.1795838716    -0.0714463259     0.0526538535
    8      O      -2.1078772005    -0.9830315624     0.3718164959
    9      C      -1.3562808872     1.1697702613     0.9743571100
   10      H      -2.4139873622     1.4330358426     0.9181027953
   11      H      -0.7887251959     2.0345997136     0.6614905073
   12      H      -1.1131655125     0.9554080247     2.0142450978
   13      H      -1.6435754709    -0.4857927170    -1.9934794663
   14      H      -0.4847153975     0.8229756169    -1.8894511970
   15      H      -2.1723203415     1.1381302142    -1.4843198471
 ----------------------------------------------------------------
 Molecular Point Group                 C1    NOp =  1
 Largest Abelian Subgroup              C1    NOp =  1
 Nuclear Repulsion Energy =   452.2294713550 hartrees
 There are       35 alpha and       35 beta electrons
 Applying Cartesian multipole field
    Component          Value
    ---------          -----
     (2,0,0)        1.00000E-11
     (0,2,0)        2.00000E-11
     (0,0,2)       -3.00000E-11
 Nucleus-field energy     =     0.0000000072 hartrees
 Requested basis set is 6-31+G(d)
 There are 57 shells and 183 basis functions
 A cutoff of  1.0D-11 yielded   1547 shell pairs
 There are     16549 function pairs
 Smallest overlap matrix eigenvalue = 2.59E-05
 Guess MOs from SCF MO coefficient file
 Reading MOs from coefficient file
 Reading MOs from coefficient file
 A restricted Hartree-Fock SCF calculation will be
 performed using Pulay DIIS extrapolation
 SCF converges when DIIS error is below 1.0E-08
Geometry optimization detected.  Setting ReadMinima to 0
Setting SaveMinima to 0
 ---------------------------------------
  Cycle       Energy         DIIS Error
 ---------------------------------------
    1    -492.1952108641      3.11E-03
    2    -492.1784141524      5.08E-04
    3    -492.1803319844      2.34E-04
    4    -492.1806514411      1.12E-04
    5    -492.1807540055      3.89E-05
    6    -492.1807727113      2.00E-05
    7    -492.1807826618      8.43E-06
    8    -492.1807844851      3.76E-06
    9    -492.1807847643      1.83E-06
   10    -492.1807848547      8.65E-07
   11    -492.1807848734      3.55E-07
   12    -492.1807848756      1.12E-07
   13    -492.1807848759      5.07E-08
   14    -492.1807848761      1.45E-08
   15    -492.1807848760      4.44E-09 Convergence criterion met
 ---------------------------------------
 SCF time:  CPU 102.88 s  wall 102.31 s
 SCF   energy in the final basis set = -492.1807848760
 Total energy in the final basis set = -492.1807848760
 
 --------------------------------------------------------------
 
                    Orbital Energies (a.u.)
 --------------------------------------------------------------
 
 Alpha MOs
 -- Occupied --
-20.248 -20.196 -20.195 -20.116 -11.023 -10.997 -10.958 -10.920
-10.910  -1.097  -1.064  -0.969  -0.922  -0.704  -0.636  -0.562
 -0.457  -0.369  -0.344  -0.329  -0.296  -0.284  -0.281  -0.265
 -0.242  -0.229  -0.207  -0.176  -0.171  -0.153  -0.100  -0.085
 -0.066  -0.012  -0.004
 -- Virtual --
  0.295   0.299   0.325   0.336   0.355   0.361   0.365   0.368
  0.371   0.391   0.400   0.409   0.415   0.427   0.439   0.440
  0.462   0.464   0.513   0.521   0.591   0.596   0.607   0.620
  0.636   0.650   0.659   0.659   0.669   0.676   0.680   0.692
  0.710   0.714   0.718   0.735   0.737   0.747   0.763   0.767
  0.775   0.792   0.814   0.820   0.827   0.862   0.864   0.892
  0.939   1.040   1.070   1.147   1.170   1.201   1.222   1.273
  1.276   1.285   1.305   1.357   1.363   1.383   1.412   1.423
  1.454   1.498   1.506   1.541   1.567   1.602   1.616   1.649
  1.664   1.705   1.740   1.786   1.840   1.857   1.869   1.903
  1.909   1.917   1.940   1.950   1.973   1.996   2.009   2.023
  2.049   2.082   2.083   2.100   2.144   2.180   2.256   2.262
  2.290   2.314   2.338   2.383   2.391   2.452   2.470   2.494
  2.509   2.512   2.565   2.584   2.611   2.630   2.654   2.667
  2.703   2.712   2.727   2.798   2.825   2.859   2.936   2.956
  2.970   3.010   3.029   3.091   3.100   3.164   3.226   3.242
  3.335   3.344   3.430   3.480   3.530   3.738   3.745   3.824
  3.864   3.950   3.979   4.900   4.949   5.044   5.072   5.126
  5.267   5.325   5.456   5.557
 --------------------------------------------------------------
 
          Ground-State Mulliken Net Atomic Charges

     Atom                 Charge (a.u.)
  ----------------------------------------
      1 C                     0.499733
      2 O                    -0.729623
      3 O                    -0.754723
      4 C                     0.357326
      5 C                    -0.681346
      6 O                    -0.505077
      7 C                     0.363998
      8 O                    -0.850159
      9 C                    -0.705029
     10 H                     0.153664
     11 H                     0.205150
     12 H                     0.154751
     13 H                     0.190179
     14 H                     0.168731
     15 H                     0.132424
  ----------------------------------------
  Sum of atomic charges =    -2.000000

 -----------------------------------------------------------------
                    Cartesian Multipole Moments
 -----------------------------------------------------------------
    Charge (ESU x 10^10)
                -9.6064
    Dipole Moment (Debye)
         X      -0.9637      Y       3.0680      Z      -0.7225
       Tot       3.2960
    Quadrupole Moments (Debye-Ang)
        XX    -107.6920     XY      -9.8437     YY     -81.7555
        XZ       7.0066     YZ       3.0383     ZZ     -62.4282
    Octopole Moments (Debye-Ang^2)
       XXX       4.1140    XXY      15.0967    XYY       2.2045
       YYY      -4.6000    XXZ       4.7131    XYZ      -3.0977
       YYZ      -5.8832    XZZ      13.5838    YZZ      -4.8997
       ZZZ       8.3042
    Hexadecapole Moments (Debye-Ang^3)
      XXXX   -1241.0336   XXXY     -40.5955   XXYY    -282.2274
      XYYY     -21.1023   YYYY    -494.8575   XXXZ      67.8329
      XXYZ       6.5565   XYYZ      13.3107   YYYZ      11.8967
      XXZZ    -222.8287   XYZZ       4.2104   YYZZ    -125.6240
      XZZZ      18.0582   YZZZ       8.4538   ZZZZ    -289.3355
 -----------------------------------------------------------------
 Calculating analytic gradient of the SCF energy
 Gradient of SCF Energy
            1           2           3           4           5           6
    1   0.0046621  -0.0037258  -0.0066099   0.0069313  -0.0160232  -0.0036616
    2  -0.0049827  -0.0011253   0.0020590  -0.0086708   0.0003929   0.0139046
    3   0.0130143  -0.0049253  -0.0021886   0.0014430  -0.0001730  -0.0060588
            7           8           9          10          11          12
    1   0.0122110  -0.0028287   0.0018916   0.0005235  -0.0045476   0.0001282
    2   0.0003069   0.0012578  -0.0099337   0.0034935  -0.0004265   0.0034810
    3  -0.0056969   0.0012915   0.0053707  -0.0031327  -0.0008467   0.0005294
           13          14          15
    1   0.0052558   0.0019696   0.0038237
    2   0.0019185  -0.0035817   0.0019065
    3   0.0026983  -0.0023664   0.0010412
 Max gradient component =       1.602E-02
 RMS gradient           =       5.566E-03
 Gradient time:  CPU 57.48 s  wall 57.46 s
 Geometry Optimization Parameters
   NAtoms,    NIC,     NZ,  NCons,   NDum,   NFix, NCnnct, MaxDiis
       15      96       0       0       0       0       0       0

 Cartesian Hessian Update
 Hessian Updated using BFGS Update


** GEOMETRY OPTIMIZATION IN DELOCALIZED INTERNAL COORDINATES **
   Searching for a Minimum

   Optimization Cycle:   4

                       Coordinates (Angstroms)
     ATOM                X               Y               Z
      1  C         1.5529781803    0.2993903032   -0.1016395833
      2  O         1.3766010736    1.5248837949   -0.0430224905
      3  O         2.5800984621   -0.2984646279   -0.4235486368
      4  C         0.2939607737   -0.6133974230    0.1660966383
      5  C        -1.3788988912    0.3969562293   -1.4288705321
      6  O         0.4898913058   -1.7587821366    0.4204278635
      7  C        -1.1795838716   -0.0714463259    0.0526538535
      8  O        -2.1078772005   -0.9830315624    0.3718164959
      9  C        -1.3562808872    1.1697702613    0.9743571100
     10  H        -2.4139873622    1.4330358426    0.9181027953
     11  H        -0.7887251959    2.0345997136    0.6614905073
     12  H        -1.1131655125    0.9554080247    2.0142450978
     13  H        -1.6435754709   -0.4857927170   -1.9934794663
     14  H        -0.4847153975    0.8229756169   -1.8894511970
     15  H        -2.1723203415    1.1381302142   -1.4843198471
   Point Group: c1    Number of degrees of freedom:    39


   Energy is   -492.180784876

 Hessian Updated using BFGS Update

 37 Hessian modes will be used to form the next step
  Hessian Eigenvalues:
     0.001996    0.002000    0.002003    0.004542    0.007709    0.035493
     0.048977    0.050360    0.053880    0.061730    0.065489    0.078258
     0.125283    0.149415    0.160017    0.160139    0.161705    0.176660
     0.193105    0.244180    0.249918    0.250753    0.251396    0.252991
     0.256589    0.262148    0.273045    0.273580    0.287698    0.301843
     0.312973    0.340771    0.363210    0.523284    0.648904    0.774462
     0.863824

 Minimum Search - Taking Simple RFO Step
 Searching for Lamda that Minimizes Along All modes
 Value Taken    Lamda =  -0.00681650
 Calculated Step too Large.  Step scaled by  0.517252
 Step Taken.  Stepsize is  0.300000

                             Maximum     Tolerance    Cnvgd?
         Gradient           0.010972      0.000300      NO
         Displacement       0.136720      0.001200      NO
         Energy change     -0.005649      0.000001      NO


 New Cartesian Coordinates Obtained by Inverse Iteration

 Displacement from previous Coordinates is:  0.447175
 ----------------------------------------------------------------
             Standard Nuclear Orientation (Angstroms)
    I     Atom           X                Y                Z
 ----------------------------------------------------------------
    1      C       1.5514664156     0.2833848312    -0.1701577853
    2      O       1.4082944510     1.5147456663    -0.1370669096
    3      O       2.5694192192    -0.3414794645    -0.4747156609
    4      C       0.2835812293    -0.6045782641     0.1869747636
    5      C      -1.3492657260     0.4088280655    -1.4215761243
    6      O       0.4858680593    -1.7333010707     0.5213749984
    7      C      -1.1936747786    -0.0649628096     0.0635656033
    8      O      -2.1141076218    -0.9912364532     0.3564531868
    9      C      -1.3828918683     1.1762216030     0.9854646173
   10      H      -2.4434236866     1.4242728896     0.9358727278
   11      H      -0.8005393327     2.0402434184     0.6985668427
   12      H      -1.1472207472     0.9234592983     2.0183356111
   13      H      -1.5640262660    -0.4721277689    -2.0151828492
   14      H      -0.4656522932     0.8965583231    -1.8336287085
   15      H      -2.1834273894     1.1042069437    -1.4994217047
 ----------------------------------------------------------------
 Molecular Point Group                 C1    NOp =  1
 Largest Abelian Subgroup              C1    NOp =  1
 Nuclear Repulsion Energy =   451.2758358336 hartrees
 There are       35 alpha and       35 beta electrons
 Applying Cartesian multipole field
    Component          Value
    ---------          -----
     (2,0,0)        1.00000E-11
     (0,2,0)        2.00000E-11
     (0,0,2)       -3.00000E-11
 Nucleus-field energy     =     0.0000000070 hartrees
 Requested basis set is 6-31+G(d)
 There are 57 shells and 183 basis functions
 A cutoff of  1.0D-11 yielded   1546 shell pairs
 There are     16545 function pairs
 Smallest overlap matrix eigenvalue = 2.56E-05
 Guess MOs from SCF MO coefficient file
 Reading MOs from coefficient file
 Reading MOs from coefficient file
 A restricted Hartree-Fock SCF calculation will be
 performed using Pulay DIIS extrapolation
 SCF converges when DIIS error is below 1.0E-08
Geometry optimization detected.  Setting ReadMinima to 0
Setting SaveMinima to 0
 ---------------------------------------
  Cycle       Energy         DIIS Error
 ---------------------------------------
    1    -492.1714858794      2.09E-03
    2    -492.1822818507      3.17E-04
    3    -492.1831071319      1.35E-04
    4    -492.1832447983      6.89E-05
    5    -492.1832879536      2.49E-05
    6    -492.1832965235      1.26E-05
    7    -492.1832993985      4.82E-06
    8    -492.1832998041      2.62E-06
    9    -492.1832999413      1.36E-06
   10    -492.1832999960      5.13E-07
   11    -492.1833000025      2.13E-07
   12    -492.1833000031      6.59E-08
   13    -492.1833000032      2.30E-08
   14    -492.1833000030      7.58E-09 Convergence criterion met
 ---------------------------------------
 SCF time:  CPU 96.18 s  wall 95.64 s
 SCF   energy in the final basis set = -492.1833000030
 Total energy in the final basis set = -492.1833000030
 
 --------------------------------------------------------------
 
                    Orbital Energies (a.u.)
 --------------------------------------------------------------
 
 Alpha MOs
 -- Occupied --
-20.248 -20.196 -20.196 -20.118 -11.024 -10.999 -10.960 -10.919
-10.914  -1.094  -1.063  -0.968  -0.924  -0.706  -0.638  -0.560
 -0.456  -0.368  -0.343  -0.329  -0.295  -0.284  -0.282  -0.268
 -0.240  -0.232  -0.206  -0.177  -0.173  -0.154  -0.100  -0.085
 -0.067  -0.014  -0.005
 -- Virtual --
  0.295   0.298   0.325   0.336   0.354   0.361   0.365   0.368
  0.372   0.391   0.399   0.409   0.416   0.427   0.439   0.440
  0.460   0.465   0.515   0.520   0.590   0.596   0.606   0.623
  0.637   0.647   0.652   0.660   0.669   0.676   0.681   0.688
  0.711   0.713   0.716   0.733   0.735   0.746   0.760   0.764
  0.774   0.791   0.815   0.818   0.827   0.860   0.867   0.889
  0.935   1.041   1.068   1.148   1.169   1.193   1.215   1.272
  1.277   1.289   1.306   1.353   1.360   1.372   1.411   1.425
  1.447   1.493   1.506   1.544   1.562   1.602   1.618   1.642
  1.673   1.704   1.734   1.791   1.829   1.857   1.872   1.900
  1.910   1.920   1.944   1.951   1.970   1.996   2.011   2.024
  2.045   2.080   2.085   2.104   2.131   2.176   2.254   2.258
  2.287   2.311   2.332   2.381   2.384   2.457   2.472   2.494
  2.506   2.511   2.565   2.579   2.610   2.623   2.647   2.665
  2.704   2.715   2.723   2.802   2.819   2.861   2.932   2.946
  2.966   3.005   3.019   3.090   3.095   3.163   3.224   3.234
  3.327   3.345   3.424   3.482   3.522   3.724   3.736   3.820
  3.864   3.941   3.972   4.897   4.947   5.039   5.078   5.116
  5.260   5.325   5.453   5.546
 --------------------------------------------------------------
 
          Ground-State Mulliken Net Atomic Charges

     Atom                 Charge (a.u.)
  ----------------------------------------
      1 C                     0.496500
      2 O                    -0.734075
      3 O                    -0.752443
      4 C                     0.353299
      5 C                    -0.685310
      6 O                    -0.508944
      7 C                     0.385957
      8 O                    -0.849228
      9 C                    -0.716483
     10 H                     0.156378
     11 H                     0.200937
     12 H                     0.157783
     13 H                     0.186055
     14 H                     0.178086
     15 H                     0.131489
  ----------------------------------------
  Sum of atomic charges =    -2.000000

 -----------------------------------------------------------------
                    Cartesian Multipole Moments
 -----------------------------------------------------------------
    Charge (ESU x 10^10)
                -9.6064
    Dipole Moment (Debye)
         X      -1.0652      Y       3.2010      Z      -0.5126
       Tot       3.4123
    Quadrupole Moments (Debye-Ang)
        XX    -107.7526     XY      -9.6869     YY     -81.6056
        XZ       7.4018     YZ       3.7528     ZZ     -62.8951
    Octopole Moments (Debye-Ang^2)
       XXX       4.4669    XXY      16.0084    XYY       2.2218
       YYY      -4.5471    XXZ       7.1337    XYZ      -2.3375
       YYZ      -5.2642    XZZ      12.7722    YZZ      -4.2771
       ZZZ       9.3958
    Hexadecapole Moments (Debye-Ang^3)
      XXXX   -1241.6243   XXXY     -37.9921   XXYY    -283.7911
      XYYY     -19.0162   YYYY    -489.7127   XXXZ      78.7777
      XXYZ       8.4213   XYYZ      16.8809   YYYZ      19.5557
      XXZZ    -225.5350   XYZZ       5.4092   YYZZ    -127.5711
      XZZZ      26.4161   YZZZ      13.4960   ZZZZ    -296.1504
 -----------------------------------------------------------------
 Calculating analytic gradient of the SCF energy
 Gradient of SCF Energy
            1           2           3           4           5           6
    1   0.0012512   0.0006447  -0.0024253   0.0019186  -0.0084623  -0.0018853
    2  -0.0025086  -0.0003501   0.0021062  -0.0030676  -0.0008502   0.0035827
    3   0.0049218  -0.0035728   0.0001222   0.0007065  -0.0000582  -0.0043581
            7           8           9          10          11          12
    1   0.0069686  -0.0019636  -0.0001671  -0.0001026  -0.0033614   0.0002886
    2   0.0027831  -0.0024882  -0.0012221   0.0009647  -0.0010550   0.0011818
    3   0.0012472   0.0002953   0.0016316  -0.0013952   0.0003806  -0.0005191
           13          14          15
    1   0.0023402   0.0019548   0.0030008
    2   0.0013947  -0.0019351   0.0014638
    3   0.0017554  -0.0017578   0.0006004
 Max gradient component =       8.462E-03
 RMS gradient           =       2.578E-03
 Gradient time:  CPU 56.97 s  wall 56.98 s
 Geometry Optimization Parameters
   NAtoms,    NIC,     NZ,  NCons,   NDum,   NFix, NCnnct, MaxDiis
       15      96       0       0       0       0       0       0

 Cartesian Hessian Update
 Hessian Updated using BFGS Update


** GEOMETRY OPTIMIZATION IN DELOCALIZED INTERNAL COORDINATES **
   Searching for a Minimum

   Optimization Cycle:   5

                       Coordinates (Angstroms)
     ATOM                X               Y               Z
      1  C         1.5514664156    0.2833848312   -0.1701577853
      2  O         1.4082944510    1.5147456663   -0.1370669096
      3  O         2.5694192192   -0.3414794645   -0.4747156609
      4  C         0.2835812293   -0.6045782641    0.1869747636
      5  C        -1.3492657260    0.4088280655   -1.4215761243
      6  O         0.4858680593   -1.7333010707    0.5213749984
      7  C        -1.1936747786   -0.0649628096    0.0635656033
      8  O        -2.1141076218   -0.9912364532    0.3564531868
      9  C        -1.3828918683    1.1762216030    0.9854646173
     10  H        -2.4434236866    1.4242728896    0.9358727278
     11  H        -0.8005393327    2.0402434184    0.6985668427
     12  H        -1.1472207472    0.9234592983    2.0183356111
     13  H        -1.5640262660   -0.4721277689   -2.0151828492
     14  H        -0.4656522932    0.8965583231   -1.8336287085
     15  H        -2.1834273894    1.1042069437   -1.4994217047
   Point Group: c1    Number of degrees of freedom:    39


   Energy is   -492.183300003

 Hessian Updated using BFGS Update

 38 Hessian modes will be used to form the next step
  Hessian Eigenvalues:
     0.001763    0.002001    0.003075    0.004723    0.006866    0.035430
     0.043277    0.050535    0.055955    0.061083    0.073402    0.077727
     0.128955    0.149636    0.160015    0.160035    0.160887    0.161737
     0.181382    0.198834    0.243756    0.249920    0.251363    0.252641
     0.254583    0.256622    0.270443    0.272278    0.283544    0.293909
     0.308528    0.326156    0.342066    0.363797    0.526778    0.646950
     0.780561    0.862230

 Minimum Search - Taking Simple RFO Step
 Searching for Lamda that Minimizes Along All modes
 Value Taken    Lamda =  -0.00454512
 Calculated Step too Large.  Step scaled by  0.441276
 Step Taken.  Stepsize is  0.300000

                             Maximum     Tolerance    Cnvgd?
         Gradient           0.005045      0.000300      NO
         Displacement       0.149625      0.001200      NO
         Energy change     -0.002515      0.000001      NO


 New Cartesian Coordinates Obtained by Inverse Iteration

 Displacement from previous Coordinates is:  0.329353
 ----------------------------------------------------------------
             Standard Nuclear Orientation (Angstroms)
    I     Atom           X                Y                Z
 ----------------------------------------------------------------
    1      C       1.5404927690     0.2886078450    -0.1665799725
    2      O       1.4066460451     1.5168380827    -0.0569942461
    3      O       2.5573476621    -0.3255197331    -0.5017866314
    4      C       0.2708136548    -0.6119436040     0.1761344419
    5      C      -1.3571474484     0.4020384883    -1.4314968409
    6      O       0.4832037800    -1.7243796729     0.5663164906
    7      C      -1.2077115315    -0.0697846122     0.0551831352
    8      O      -2.1299162425    -0.9867961727     0.3599683051
    9      C      -1.3613785565     1.1810764369     0.9709595101
   10      H      -2.4149078164     1.4553690681     0.9348417716
   11      H      -0.7398935121     2.0223987114     0.6879831024
   12      H      -1.1284539916     0.9039267509     1.9986919041
   13      H      -1.5317687208    -0.4813993430    -2.0408831067
   14      H      -0.5002502116     0.9471138606    -1.8207859732
   15      H      -2.2326762150     1.0466891023    -1.5166932816
 ----------------------------------------------------------------
 Molecular Point Group                 C1    NOp =  1
 Largest Abelian Subgroup              C1    NOp =  1
 Nuclear Repulsion Energy =   451.0719405610 hartrees
 There are       35 alpha and       35 beta electrons
 Applying Cartesian multipole field
    Component          Value
    ---------          -----
     (2,0,0)        1.00000E-11
     (0,2,0)        2.00000E-11
     (0,0,2)       -3.00000E-11
 Nucleus-field energy     =     0.0000000069 hartrees
 Requested basis set is 6-31+G(d)
 There are 57 shells and 183 basis functions
 A cutoff of  1.0D-11 yielded   1548 shell pairs
 There are     16550 function pairs
 Smallest overlap matrix eigenvalue = 2.59E-05
 Guess MOs from SCF MO coefficient file
 Reading MOs from coefficient file
 Reading MOs from coefficient file
 A restricted Hartree-Fock SCF calculation will be
 performed using Pulay DIIS extrapolation
 SCF converges when DIIS error is below 1.0E-08
Geometry optimization detected.  Setting ReadMinima to 0
Setting SaveMinima to 0
 ---------------------------------------
  Cycle       Energy         DIIS Error
 ---------------------------------------
    1    -492.1745988702      1.94E-03
    2    -492.1838680901      2.82E-04
    3    -492.1844747539      1.28E-04
    4    -492.1845714481      6.74E-05
    5    -492.1846041391      1.96E-05
    6    -492.1846088937      9.73E-06
    7    -492.1846104211      3.61E-06
    8    -492.1846105582      1.33E-06
    9    -492.1846105762      4.11E-07
   10    -492.1846105796      1.90E-07
   11    -492.1846105806      1.01E-07
   12    -492.1846105807      4.38E-08
   13    -492.1846105807      2.04E-08
   14    -492.1846105809      9.36E-09 Convergence criterion met
 ---------------------------------------
 SCF time:  CPU 95.03 s  wall 94.46 s
 SCF   energy in the final basis set = -492.1846105809
 Total energy in the final basis set = -492.1846105809
 
 --------------------------------------------------------------
 
                    Orbital Energies (a.u.)
 --------------------------------------------------------------
 
 Alpha MOs
 -- Occupied --
-20.248 -20.197 -20.196 -20.120 -11.025 -11.000 -10.961 -10.921
-10.912  -1.092  -1.063  -0.968  -0.925  -0.707  -0.637  -0.560
 -0.455  -0.369  -0.343  -0.328  -0.295  -0.285  -0.281  -0.267
 -0.242  -0.231  -0.205  -0.178  -0.174  -0.154  -0.101  -0.086
 -0.067  -0.015  -0.005
 -- Virtual --
  0.294   0.298   0.325   0.337   0.354   0.361   0.365   0.368
  0.372   0.392   0.399   0.411   0.415   0.427   0.438   0.441
  0.458   0.466   0.516   0.519   0.585   0.596   0.607   0.624
  0.636   0.643   0.653   0.661   0.669   0.675   0.682   0.691
  0.710   0.712   0.715   0.732   0.736   0.745   0.760   0.761
  0.770   0.791   0.811   0.818   0.825   0.859   0.862   0.886
  0.933   1.041   1.070   1.150   1.171   1.185   1.219   1.266
  1.279   1.289   1.312   1.347   1.358   1.370   1.412   1.425
  1.446   1.494   1.497   1.546   1.560   1.596   1.611   1.643
  1.678   1.705   1.734   1.794   1.824   1.855   1.876   1.898
  1.913   1.923   1.943   1.951   1.968   2.000   2.012   2.025
  2.041   2.080   2.083   2.108   2.137   2.178   2.248   2.255
  2.281   2.304   2.332   2.377   2.381   2.455   2.473   2.494
  2.505   2.516   2.564   2.579   2.607   2.613   2.646   2.656
  2.701   2.719   2.726   2.799   2.820   2.867   2.926   2.943
  2.962   2.998   3.023   3.078   3.092   3.167   3.217   3.240
  3.319   3.351   3.418   3.487   3.518   3.707   3.735   3.815
  3.866   3.930   3.963   4.902   4.948   5.033   5.084   5.119
  5.254   5.318   5.445   5.524
 --------------------------------------------------------------
 
          Ground-State Mulliken Net Atomic Charges

     Atom                 Charge (a.u.)
  ----------------------------------------
      1 C                     0.498986
      2 O                    -0.730493
      3 O                    -0.750844
      4 C                     0.358191
      5 C                    -0.675566
      6 O                    -0.515079
      7 C                     0.346112
      8 O                    -0.847591
      9 C                    -0.701043
     10 H                     0.152532
     11 H                     0.208826
     12 H                     0.161529
     13 H                     0.182763
     14 H                     0.176676
     15 H                     0.135001
  ----------------------------------------
  Sum of atomic charges =    -2.000000

 -----------------------------------------------------------------
                    Cartesian Multipole Moments
 -----------------------------------------------------------------
    Charge (ESU x 10^10)
                -9.6064
    Dipole Moment (Debye)
         X      -1.0106      Y       3.1642      Z      -0.7584
       Tot       3.4072
    Quadrupole Moments (Debye-Ang)
        XX    -107.8569     XY      -9.7721     YY     -81.4127
        XZ       7.2090     YZ       3.4770     ZZ     -63.2093
    Octopole Moments (Debye-Ang^2)
       XXX       6.9129    XXY      15.5436    XYY       2.7416
       YYY      -5.0205    XXZ       6.8357    XYZ      -3.0262
       YYZ      -6.5931    XZZ      12.7695    YZZ      -3.9592
       ZZZ       8.5944
    Hexadecapole Moments (Debye-Ang^3)
      XXXX   -1239.2653   XXXY     -42.3223   XXYY    -283.2485
      XYYY     -20.9465   YYYY    -487.9719   XXXZ      76.3780
      XXYZ       7.1667   XYYZ      14.4240   YYYZ      18.2389
      XXZZ    -226.2842   XYZZ       4.9942   YYZZ    -127.9644
      XZZZ      23.1280   YZZZ      12.5851   ZZZZ    -299.3892
 -----------------------------------------------------------------
 Calculating analytic gradient of the SCF energy
 Gradient of SCF Energy
            1           2           3           4           5           6
    1   0.0001767   0.0000116   0.0004477  -0.0011436  -0.0009043  -0.0005364
    2   0.0003446   0.0010947   0.0012153  -0.0026189   0.0001427  -0.0010331
    3   0.0024575  -0.0012262   0.0015159  -0.0063812  -0.0005904  -0.0000369
            7           8           9          10          11          12
    1   0.0025886  -0.0013432  -0.0016821   0.0004547   0.0003007   0.0003976
    2   0.0026880  -0.0029248   0.0005004  -0.0001568   0.0008375  -0.0002414
    3   0.0044769   0.0012004  -0.0002222  -0.0003551  -0.0003173  -0.0007144
           13          14          15
    1  -0.0004320   0.0000246   0.0016394
    2   0.0001577  -0.0011331   0.0011272
    3   0.0007877  -0.0005853  -0.0000094
 Max gradient component =       6.381E-03
 RMS gradient           =       1.644E-03
 Gradient time:  CPU 57.08 s  wall 57.09 s
 Geometry Optimization Parameters
   NAtoms,    NIC,     NZ,  NCons,   NDum,   NFix, NCnnct, MaxDiis
       15      96       0       0       0       0       0       0

 Cartesian Hessian Update
 Hessian Updated using BFGS Update


** GEOMETRY OPTIMIZATION IN DELOCALIZED INTERNAL COORDINATES **
   Searching for a Minimum

   Optimization Cycle:   6

                       Coordinates (Angstroms)
     ATOM                X               Y               Z
      1  C         1.5404927690    0.2886078450   -0.1665799725
      2  O         1.4066460451    1.5168380827   -0.0569942461
      3  O         2.5573476621   -0.3255197331   -0.5017866314
      4  C         0.2708136548   -0.6119436040    0.1761344419
      5  C        -1.3571474484    0.4020384883   -1.4314968409
      6  O         0.4832037800   -1.7243796729    0.5663164906
      7  C        -1.2077115315   -0.0697846122    0.0551831352
      8  O        -2.1299162425   -0.9867961727    0.3599683051
      9  C        -1.3613785565    1.1810764369    0.9709595101
     10  H        -2.4149078164    1.4553690681    0.9348417716
     11  H        -0.7398935121    2.0223987114    0.6879831024
     12  H        -1.1284539916    0.9039267509    1.9986919041
     13  H        -1.5317687208   -0.4813993430   -2.0408831067
     14  H        -0.5002502116    0.9471138606   -1.8207859732
     15  H        -2.2326762150    1.0466891023   -1.5166932816
   Point Group: c1    Number of degrees of freedom:    39


   Energy is   -492.184610581

 Hessian Updated using BFGS Update

 39 Hessian modes will be used to form the next step
  Hessian Eigenvalues:
     0.001335    0.002012    0.002765    0.005025    0.015775    0.035861
     0.050515    0.054642    0.059854    0.062598    0.074492    0.078708
     0.135984    0.150161    0.160000    0.160016    0.160427    0.161656
     0.162612    0.181366    0.196406    0.243492    0.250812    0.251310
     0.253414    0.256611    0.260755    0.270927    0.272130    0.290912
     0.305677    0.312099    0.334167    0.343068    0.363496    0.522460
     0.646361    0.786976    0.874222

 Minimum Search - Taking Simple RFO Step
 Searching for Lamda that Minimizes Along All modes
 Value Taken    Lamda =  -0.00434030
 Calculated Step too Large.  Step scaled by  0.375385
 Step Taken.  Stepsize is  0.300000

                             Maximum     Tolerance    Cnvgd?
         Gradient           0.005070      0.000300      NO
         Displacement       0.208535      0.001200      NO
         Energy change     -0.001311      0.000001      NO


 New Cartesian Coordinates Obtained by Inverse Iteration

 Displacement from previous Coordinates is:  0.385917
 ----------------------------------------------------------------
             Standard Nuclear Orientation (Angstroms)
    I     Atom           X                Y                Z
 ----------------------------------------------------------------
    1      C       1.5317185579     0.2788536604    -0.2027406701
    2      O       1.4291700533     1.5072303399    -0.0660313357
    3      O       2.5160052904    -0.3546784519    -0.5976517146
    4      C       0.2660723822    -0.5988378459     0.2138333375
    5      C      -1.3364748604     0.4075850094    -1.4289993725
    6      O       0.4873071939    -1.6964651895     0.6431085769
    7      C      -1.2153867076    -0.0693738129     0.0585184263
    8      O      -2.1386440855    -0.9853039980     0.3490098522
    9      C      -1.3723795089     1.1799778568     0.9754934217
   10      H      -2.4212590503     1.4678349661     0.9280583841
   11      H      -0.7247293008     2.0097944426     0.7116191054
   12      H      -1.1618567279     0.8851515241     2.0039328708
   13      H      -1.4505484041    -0.4746886689    -2.0584623373
   14      H      -0.5043707365     1.0107423072    -1.7793205622
   15      H      -2.2502244312     0.9964130687    -1.5355093740
 ----------------------------------------------------------------
 Molecular Point Group                 C1    NOp =  1
 Largest Abelian Subgroup              C1    NOp =  1
 Nuclear Repulsion Energy =   451.0259115888 hartrees
 There are       35 alpha and       35 beta electrons
 Applying Cartesian multipole field
    Component          Value
    ---------          -----
     (2,0,0)        1.00000E-11
     (0,2,0)        2.00000E-11
     (0,0,2)       -3.00000E-11
 Nucleus-field energy     =     0.0000000066 hartrees
 Requested basis set is 6-31+G(d)
 There are 57 shells and 183 basis functions
 A cutoff of  1.0D-11 yielded   1548 shell pairs
 There are     16550 function pairs
 Smallest overlap matrix eigenvalue = 2.60E-05
 Guess MOs from SCF MO coefficient file
 Reading MOs from coefficient file
 Reading MOs from coefficient file
 A restricted Hartree-Fock SCF calculation will be
 performed using Pulay DIIS extrapolation
 SCF converges when DIIS error is below 1.0E-08
Geometry optimization detected.  Setting ReadMinima to 0
Setting SaveMinima to 0
 ---------------------------------------
  Cycle       Energy         DIIS Error
 ---------------------------------------
    1    -492.1816001748      1.93E-03
    2    -492.1852220391      2.71E-04
    3    -492.1858476291      1.07E-04
    4    -492.1859411581      6.03E-05
    5    -492.1859655722      1.79E-05
    6    -492.1859697141      8.19E-06
    7    -492.1859706995      2.33E-06
    8    -492.1859707641      9.33E-07
    9    -492.1859707703      3.36E-07
   10    -492.1859707718      1.32E-07
   11    -492.1859707719      6.04E-08
   12    -492.1859707718      2.71E-08
   13    -492.1859707716      1.38E-08
   14    -492.1859707715      6.20E-09 Convergence criterion met
 ---------------------------------------
 SCF time:  CPU 94.06 s  wall 93.52 s
 SCF   energy in the final basis set = -492.1859707715
 Total energy in the final basis set = -492.1859707715
 
 --------------------------------------------------------------
 
                    Orbital Energies (a.u.)
 --------------------------------------------------------------
 
 Alpha MOs
 -- Occupied --
-20.248 -20.198 -20.197 -20.121 -11.026 -11.000 -10.962 -10.921
-10.913  -1.092  -1.062  -0.969  -0.928  -0.708  -0.638  -0.559
 -0.454  -0.369  -0.342  -0.328  -0.296  -0.286  -0.281  -0.267
 -0.242  -0.231  -0.205  -0.180  -0.175  -0.155  -0.101  -0.087
 -0.068  -0.016  -0.005
 -- Virtual --
  0.294   0.297   0.325   0.337   0.353   0.361   0.365   0.368
  0.372   0.392   0.398   0.411   0.415   0.426   0.439   0.442
  0.456   0.468   0.515   0.521   0.582   0.596   0.605   0.626
  0.636   0.642   0.649   0.663   0.668   0.677   0.681   0.691
  0.709   0.712   0.715   0.731   0.737   0.744   0.757   0.759
  0.771   0.793   0.810   0.816   0.828   0.858   0.862   0.887
  0.934   1.038   1.069   1.149   1.169   1.178   1.216   1.266
  1.280   1.295   1.318   1.342   1.359   1.366   1.411   1.424
  1.440   1.494   1.497   1.549   1.557   1.594   1.608   1.640
  1.685   1.705   1.730   1.797   1.811   1.860   1.878   1.893
  1.911   1.928   1.946   1.954   1.964   2.001   2.013   2.027
  2.038   2.082   2.084   2.114   2.134   2.180   2.249   2.257
  2.274   2.297   2.332   2.371   2.381   2.456   2.472   2.491
  2.507   2.518   2.564   2.575   2.603   2.610   2.646   2.655
  2.703   2.724   2.729   2.799   2.818   2.868   2.921   2.936
  2.956   2.996   3.025   3.074   3.090   3.171   3.214   3.246
  3.318   3.355   3.415   3.492   3.518   3.699   3.732   3.813
  3.864   3.924   3.962   4.910   4.948   5.037   5.092   5.115
  5.248   5.305   5.440   5.518
 --------------------------------------------------------------
 
          Ground-State Mulliken Net Atomic Charges

     Atom                 Charge (a.u.)
  ----------------------------------------
      1 C                     0.496618
      2 O                    -0.729440
      3 O                    -0.749777
      4 C                     0.358256
      5 C                    -0.670671
      6 O                    -0.519658
      7 C                     0.336854
      8 O                    -0.845075
      9 C                    -0.699291
     10 H                     0.151676
     11 H                     0.208813
     12 H                     0.163376
     13 H                     0.179853
     14 H                     0.180510
     15 H                     0.137956
  ----------------------------------------
  Sum of atomic charges =    -2.000000

 -----------------------------------------------------------------
                    Cartesian Multipole Moments
 -----------------------------------------------------------------
    Charge (ESU x 10^10)
                -9.6064
    Dipole Moment (Debye)
         X      -0.9780      Y       3.2275      Z      -0.5916
       Tot       3.4239
    Quadrupole Moments (Debye-Ang)
        XX    -107.4006     XY      -9.6569     YY     -81.2004
        XZ       7.8108     YZ       3.5148     ZZ     -63.8407
    Octopole Moments (Debye-Ang^2)
       XXX      10.2695    XXY      15.6569    XYY       2.9155
       YYY      -5.4203    XXZ       8.9873    XYZ      -3.0237
       YYZ      -6.7750    XZZ      11.5252    YZZ      -3.2814
       ZZZ       9.1724
    Hexadecapole Moments (Debye-Ang^3)
      XXXX   -1224.3111   XXXY     -41.8624   XXYY    -282.4853
      XYYY     -19.7108   YYYY    -481.4534   XXXZ      86.4476
      XXYZ       6.5232   XYYZ      16.2535   YYYZ      20.5244
      XXZZ    -228.9463   XYZZ       5.9691   YYZZ    -129.5446
      XZZZ      29.7211   YZZZ      14.2410   ZZZZ    -308.1645
 -----------------------------------------------------------------
 Calculating analytic gradient of the SCF energy
 Gradient of SCF Energy
            1           2           3           4           5           6
    1   0.0003316  -0.0004247   0.0023842  -0.0029276   0.0033520   0.0005823
    2   0.0023478   0.0003043  -0.0004452   0.0011572   0.0011547  -0.0032774
    3  -0.0024164  -0.0004426   0.0021592   0.0018837  -0.0006470  -0.0022179
            7           8           9          10          11          12
    1  -0.0006720  -0.0004150  -0.0026090   0.0005292   0.0018040   0.0005259
    2   0.0006094  -0.0016301   0.0011904  -0.0012287   0.0008937  -0.0007854
    3   0.0030277   0.0013170  -0.0014619   0.0003294  -0.0003992  -0.0004767
           13          14          15
    1  -0.0021030  -0.0007741   0.0004163
    2  -0.0007704  -0.0004897   0.0009694
    3  -0.0000935   0.0001845  -0.0007462
 Max gradient component =       3.352E-03
 RMS gradient           =       1.525E-03
 Gradient time:  CPU 57.16 s  wall 57.16 s
 Geometry Optimization Parameters
   NAtoms,    NIC,     NZ,  NCons,   NDum,   NFix, NCnnct, MaxDiis
       15      96       0       0       0       0       0       0

 Cartesian Hessian Update
 Hessian Updated using BFGS Update


** GEOMETRY OPTIMIZATION IN DELOCALIZED INTERNAL COORDINATES **
   Searching for a Minimum

   Optimization Cycle:   7

                       Coordinates (Angstroms)
     ATOM                X               Y               Z
      1  C         1.5317185579    0.2788536604   -0.2027406701
      2  O         1.4291700533    1.5072303399   -0.0660313357
      3  O         2.5160052904   -0.3546784519   -0.5976517146
      4  C         0.2660723822   -0.5988378459    0.2138333375
      5  C        -1.3364748604    0.4075850094   -1.4289993725
      6  O         0.4873071939   -1.6964651895    0.6431085769
      7  C        -1.2153867076   -0.0693738129    0.0585184263
      8  O        -2.1386440855   -0.9853039980    0.3490098522
      9  C        -1.3723795089    1.1799778568    0.9754934217
     10  H        -2.4212590503    1.4678349661    0.9280583841
     11  H        -0.7247293008    2.0097944426    0.7116191054
     12  H        -1.1618567279    0.8851515241    2.0039328708
     13  H        -1.4505484041   -0.4746886689   -2.0584623373
     14  H        -0.5043707365    1.0107423072   -1.7793205622
     15  H        -2.2502244312    0.9964130687   -1.5355093740
   Point Group: c1    Number of degrees of freedom:    39


   Energy is   -492.185970772

 Hessian Updated using BFGS Update

 39 Hessian modes will be used to form the next step
  Hessian Eigenvalues:
[...]
                                         0.1925 -0.0197 -0.0214  0.2533 -0.4837
                                        -0.4245  0.5901 -0.1212 -0.0613
 130. (0.00010) RY*(11) C  7             s(  1.37%)p33.40( 45.64%)d38.78( 53.00%)
 131. (0.00004) RY*(12) C  7             s( 14.45%)p 4.75( 68.68%)d 1.17( 16.87%)
 132. (0.00002) RY*(13) C  7             s( 91.42%)p 0.03(  2.89%)d 0.06(  5.68%)
 133. (0.00002) RY*(14) C  7             s( 34.92%)p 1.15( 40.06%)d 0.72( 25.02%)
 134. (0.00390) RY*( 1) O  8             s(  0.19%)p99.99( 99.67%)d 0.70(  0.14%)
                                         0.0000 -0.0021  0.0419 -0.0018 -0.0123
                                         0.0106 -0.7329  0.1040 -0.0070  0.6587
                                        -0.0838 -0.0046  0.0721 -0.0506  0.0010
                                        -0.0080  0.0097  0.0338 -0.0073
 135. (0.00360) RY*( 2) O  8             s(  0.32%)p99.99( 99.28%)d 1.21(  0.39%)
                                         0.0000 -0.0009  0.0521 -0.0222  0.0054
                                         0.0026 -0.1472  0.0212  0.0034 -0.0570
                                        -0.0082  0.0112 -0.9784  0.1000 -0.0036
                                         0.0300  0.0491 -0.0045 -0.0242
 136. (0.00044) RY*( 3) O  8             s( 89.67%)p 0.10(  8.74%)d 0.02(  1.59%)
                                         0.0000  0.0051  0.8875  0.3275  0.0423
                                         0.0169  0.1012  0.0282  0.0098  0.0899
                                         0.2379  0.0009  0.0274  0.1028 -0.0896
                                        -0.0441  0.0224 -0.0291  0.0674
 137. (0.00032) RY*( 4) O  8             s(  9.48%)p 8.01( 75.88%)d 1.54( 14.64%)
                                         0.0000  0.0020  0.1052  0.0409  0.2864
                                        -0.0056 -0.5370 -0.1333 -0.0094 -0.6170
                                        -0.1002  0.0022  0.1017 -0.2270 -0.3173
                                         0.0735  0.0976 -0.0011  0.1755
 138. (0.00023) RY*( 5) O  8             s(  1.56%)p60.31( 93.81%)d 2.98(  4.64%)
                                         0.0000  0.0005  0.0013  0.1231 -0.0199
                                        -0.0026 -0.0396  0.6152 -0.0039 -0.1614
                                        -0.4738  0.0022  0.0829  0.5483 -0.1456
                                        -0.0415 -0.0735 -0.1301 -0.0339
 139. (0.00014) RY*( 6) O  8             s(  4.85%)p19.08( 92.61%)d 0.52(  2.54%)
                                         0.0000  0.0004  0.1858  0.0136 -0.1176
                                         0.0030  0.1935  0.3388  0.0041  0.0470
                                        -0.4639  0.0015 -0.0853 -0.7411  0.0720
                                         0.1158 -0.0251 -0.0772  0.0134
 140. (0.00007) RY*( 7) O  8             s( 46.73%)p 0.80( 37.31%)d 0.34( 15.96%)
 141. (0.00004) RY*( 8) O  8             s( 27.19%)p 0.49( 13.33%)d 2.19( 59.48%)
 142. (0.00000) RY*( 9) O  8             s( 89.20%)p 0.07(  6.42%)d 0.05(  4.38%)
 143. (0.00001) RY*(10) O  8             s( 27.79%)p 2.27( 63.00%)d 0.33(  9.21%)
 144. (0.00000) RY*(11) O  8             s(  0.57%)p 6.65(  3.80%)d99.99( 95.63%)
 145. (0.00001) RY*(12) O  8             s(  1.35%)p 1.41(  1.90%)d71.79( 96.75%)
 146. (0.00000) RY*(13) O  8             s(  0.96%)p 3.81(  3.67%)d99.16( 95.37%)
 147. (0.00001) RY*(14) O  8             s(  0.14%)p 7.90(  1.12%)d99.99( 98.74%)
 148. (0.00391) RY*( 1) C  9             s( 19.20%)p 4.18( 80.16%)d 0.03(  0.64%)
                                         0.0000  0.0106  0.4358 -0.0380 -0.0223
                                        -0.0022  0.5747 -0.0977 -0.0151  0.1146
                                         0.2333 -0.0115 -0.6253  0.0531  0.0625
                                         0.0066 -0.0485  0.0091 -0.0052
 149. (0.00143) RY*( 2) C  9             s( 17.27%)p 4.24( 73.27%)d 0.55(  9.46%)
                                         0.0000  0.0023  0.3346  0.2457 -0.0193
                                        -0.0077 -0.4777 -0.1509  0.0036 -0.6102
                                        -0.0800  0.0002 -0.3206  0.0124  0.2074
                                         0.1242  0.0378 -0.1851 -0.0212
 150. (0.00135) RY*( 3) C  9             s(  8.82%)p 8.36( 73.76%)d 1.97( 17.42%)
                                         0.0000  0.0019 -0.1908  0.2276 -0.0008
                                        -0.0029 -0.4226  0.1013  0.0144  0.5266
                                        -0.0612 -0.0151 -0.4908 -0.1625  0.0504
                                        -0.0403  0.0259  0.0840  0.4029
 151. (0.00038) RY*( 4) C  9             s( 65.48%)p 0.44( 29.05%)d 0.08(  5.47%)
                                         0.0000 -0.0084  0.6349 -0.4917  0.0989
                                         0.0083 -0.3945  0.0674 -0.0038  0.3297
                                        -0.0740  0.0089  0.1263  0.0036 -0.0655
                                         0.0518 -0.0029  0.1525 -0.1566
 152. (0.00024) RY*( 5) C  9             s( 32.85%)p 1.22( 40.10%)d 0.82( 27.05%)
                                         0.0000  0.0042  0.3377  0.4544  0.0891
                                         0.0240  0.1506  0.4226  0.0057 -0.1186
                                        -0.1859 -0.0082  0.1193 -0.3690 -0.4606
                                         0.0329 -0.1134  0.1806  0.1087
 153. (0.00016) RY*( 6) C  9             s( 20.39%)p 1.58( 32.19%)d 2.33( 47.42%)
                                         0.0000 -0.0071  0.2381  0.3836  0.0100
                                        -0.0216  0.0699  0.2309 -0.0167  0.2518
                                         0.1274 -0.0155  0.3574  0.2353  0.6018
                                         0.2058 -0.1755 -0.1557  0.1209
 154. (0.00009) RY*( 7) C  9             s( 17.92%)p 2.42( 43.42%)d 2.16( 38.66%)
 155. (0.00003) RY*( 8) C  9             s(  1.90%)p32.77( 62.32%)d18.81( 35.78%)
 156. (0.00004) RY*( 9) C  9             s(  6.37%)p 5.97( 38.07%)d 8.72( 55.56%)
 157. (0.00002) RY*(10) C  9             s(  4.69%)p16.98( 79.55%)d 3.37( 15.77%)
 158. (0.00001) RY*(11) C  9             s(  1.62%)p 3.90(  6.30%)d56.98( 92.08%)
 159. (0.00000) RY*(12) C  9             s(  9.72%)p 1.02(  9.90%)d 8.27( 80.37%)
 160. (0.00001) RY*(13) C  9             s(  1.22%)p23.43( 28.64%)d57.36( 70.13%)
 161. (0.00000) RY*(14) C  9             s( 92.58%)p 0.04(  3.88%)d 0.04(  3.54%)
 162. (0.00138) RY*( 1) H 10             s(100.00%)
                                        -0.0021  1.0000
 163. (0.00105) RY*( 1) H 11             s(100.00%)
                                        -0.0021  1.0000
 164. (0.00092) RY*( 1) H 12             s(100.00%)
                                        -0.0012  1.0000
 165. (0.00081) RY*( 1) H 13             s(100.00%)
                                        -0.0010  1.0000
 166. (0.00093) RY*( 1) H 14             s(100.00%)
                                        -0.0018  1.0000
 167. (0.00118) RY*( 1) H 15             s(100.00%)
                                        -0.0015  1.0000
 168. (0.04536) BD*( 1) C  1- O  2       
               ( 66.20%)   0.8136* C  1 s( 34.09%)p 1.92( 65.61%)d 0.01(  0.30%)
                                         0.0001 -0.5826  0.0382  0.0021 -0.0059
                                        -0.2631  0.0313  0.0034 -0.7243  0.0537
                                         0.0028 -0.2416  0.0049 -0.0023 -0.0205
                                        -0.0162 -0.0270  0.0355  0.0170
               ( 33.80%)  -0.5814* O  2 s( 40.34%)p 1.47( 59.31%)d 0.01(  0.35%)
                                         0.0000 -0.6350  0.0095  0.0064 -0.0030
                                         0.2098 -0.0009 -0.0017  0.6989 -0.0190
                                        -0.0007  0.2452 -0.0102  0.0013 -0.0252
                                        -0.0115 -0.0301  0.0380  0.0201
 169. (0.04890) BD*( 1) C  1- O  3       
               ( 66.39%)   0.8148* C  1 s( 33.75%)p 1.95( 65.95%)d 0.01(  0.30%)
                                        -0.0001  0.5796 -0.0387 -0.0031  0.0054
                                         0.4286 -0.0305 -0.0005 -0.4513  0.0114
                                        -0.0025 -0.5180  0.0523  0.0043 -0.0306
                                        -0.0248  0.0349 -0.0060  0.0121
               ( 33.61%)  -0.5798* O  3 s( 39.88%)p 1.50( 59.77%)d 0.01(  0.36%)
                                         0.0000  0.6314 -0.0097 -0.0070  0.0020
                                        -0.2200  0.0047  0.0008  0.3405 -0.0141
                                         0.0008  0.6580 -0.0148 -0.0010 -0.0198
                                        -0.0279  0.0403 -0.0063  0.0268
 170. (0.31503) BD*( 2) C  1- O  3       
               ( 80.35%)   0.8964* C  1 s(  0.60%)p99.99( 98.75%)d 1.09(  0.65%)
                                         0.0001 -0.0770  0.0043  0.0064  0.0008
                                         0.5673  0.0432  0.0130 -0.3831 -0.0266
                                        -0.0129  0.7177  0.0313  0.0053 -0.0374
                                        -0.0185 -0.0087 -0.0021 -0.0687
               ( 19.65%)  -0.4433* O  3 s(  0.75%)p99.99( 98.98%)d 0.36(  0.27%)
                                         0.0000 -0.0864  0.0027  0.0009 -0.0007
                                         0.6642  0.0003  0.0019 -0.4876  0.0012
                                        -0.0005  0.5576  0.0034  0.0011  0.0289
                                         0.0143 -0.0059 -0.0019  0.0404
 171. (0.10777) BD*( 1) C  1- C  4       
               ( 52.08%)   0.7217* C  1 s( 31.70%)p 2.15( 68.09%)d 0.01(  0.21%)
                                        -0.0002 -0.5602 -0.0562 -0.0013  0.0058
                                         0.6436  0.0142 -0.0146  0.3416 -0.0038
                                        -0.0062 -0.3866  0.0007  0.0060 -0.0238
                                         0.0264  0.0182 -0.0204  0.0082
               ( 47.92%)  -0.6922* C  4 s( 32.33%)p 2.09( 67.49%)d 0.01(  0.18%)
                                         0.0001 -0.5685  0.0092  0.0057  0.0025
                                        -0.6294  0.0093  0.0024 -0.3395  0.0085
                                         0.0033  0.4039 -0.0110 -0.0040 -0.0250
                                         0.0269  0.0164 -0.0137  0.0050
 172. (0.00889) BD*( 1) C  4- O  6       
               ( 67.40%)   0.8210* C  4 s( 30.64%)p 2.25( 69.08%)d 0.01(  0.28%)
                                         0.0001 -0.5462 -0.0896  0.0064 -0.0035
                                        -0.1677 -0.0203  0.0036  0.6504  0.0503
                                        -0.0009 -0.4825 -0.0621  0.0061  0.0163
                                        -0.0135  0.0405  0.0251 -0.0071
               ( 32.60%)  -0.5710* O  6 s( 44.49%)p 1.24( 55.11%)d 0.01(  0.40%)
                                        -0.0001 -0.6667  0.0196  0.0039  0.0026
                                         0.1606  0.0008  0.0028 -0.3479  0.0060
                                        -0.0025  0.6358 -0.0082  0.0026  0.0140
                                        -0.0179  0.0494  0.0167 -0.0271
 173. (0.04398) BD*( 2) C  4- O  6       
               ( 73.24%)   0.8558* C  4 s(  0.67%)p99.99( 98.79%)d 0.81(  0.54%)
                                        -0.0001  0.0817  0.0060 -0.0006  0.0006
                                         0.0622  0.0049  0.0010  0.6444 -0.0300
                                         0.0134  0.7532 -0.0176  0.0103  0.0098
                                         0.0170  0.0032  0.0324  0.0632
               ( 26.76%)  -0.5173* O  6 s(  1.21%)p81.61( 98.43%)d 0.30(  0.37%)
                                         0.0000  0.1098 -0.0016 -0.0004 -0.0016
                                         0.0076 -0.0011 -0.0013  0.8182 -0.0045
                                        -0.0034  0.5611 -0.0015 -0.0045 -0.0094
                                        -0.0061 -0.0148 -0.0337 -0.0467
 174. (0.09782) BD*( 1) C  4- C  7       
               ( 49.00%)   0.7000* C  4 s( 36.70%)p 1.72( 63.17%)d 0.00(  0.13%)
                                         0.0000 -0.6050  0.0297 -0.0088 -0.0003
                                         0.7539 -0.0063 -0.0059 -0.1887  0.0162
                                         0.0057  0.1650 -0.0036 -0.0037  0.0191
                                        -0.0146  0.0024 -0.0240  0.0136
               ( 51.00%)  -0.7141* C  7 s( 22.35%)p 3.47( 77.45%)d 0.01(  0.20%)
                                        -0.0001 -0.4722  0.0217 -0.0052 -0.0027
                                        -0.8172  0.0211  0.0106  0.2801  0.0107
                                         0.0033 -0.1661 -0.0025 -0.0023  0.0155
                                        -0.0124  0.0000 -0.0353  0.0182
 175. (0.04922) BD*( 1) C  5- C  7       
               ( 47.83%)   0.6916* C  5 s( 27.81%)p 2.59( 72.07%)d 0.00(  0.12%)
                                        -0.0003 -0.5273  0.0053 -0.0059  0.0033
                                        -0.0717  0.0151 -0.0011  0.2685  0.0087
                                        -0.0004 -0.8019  0.0080  0.0037  0.0035
                                        -0.0041  0.0179  0.0019 -0.0298
               ( 52.17%)  -0.7223* C  7 s( 25.50%)p 2.92( 74.33%)d 0.01(  0.17%)
                                         0.0001 -0.5049  0.0091  0.0026  0.0000
                                         0.0308  0.0125  0.0102 -0.2777  0.0170
                                         0.0040  0.8153  0.0010 -0.0046  0.0020
                                         0.0049  0.0259  0.0059 -0.0307
 176. (0.00528) BD*( 1) C  5- H 13       
               ( 39.37%)   0.6274* C  5 s( 24.28%)p 3.11( 75.55%)d 0.01(  0.17%)
                                         0.0000 -0.4928 -0.0024  0.0046 -0.0011
                                        -0.1811  0.0017  0.0021  0.6437 -0.0042
                                        -0.0016  0.5552  0.0044  0.0058  0.0112
                                         0.0091 -0.0335  0.0173 -0.0054
               ( 60.63%)  -0.7787* H 13 s(100.00%)
                                        -1.0000 -0.0010
 177. (0.00934) BD*( 1) C  5- H 14       
               ( 40.19%)   0.6340* C  5 s( 24.35%)p 3.10( 75.47%)d 0.01(  0.18%)
                                         0.0001 -0.4935 -0.0021 -0.0012 -0.0009
                                        -0.5436 -0.0033  0.0059 -0.6604 -0.0043
                                         0.0001  0.1513  0.0119  0.0044 -0.0347
                                         0.0080  0.0103  0.0074  0.0193
               ( 59.81%)  -0.7734* H 14 s(100.00%)
                                        -1.0000 -0.0018
 178. (0.00713) BD*( 1) C  5- H 15       
               ( 40.76%)   0.6384* C  5 s( 23.52%)p 3.24( 76.31%)d 0.01(  0.17%)
                                        -0.0001  0.4850  0.0042 -0.0008  0.0014
                                        -0.8150 -0.0002 -0.0001  0.2739 -0.0046
                                         0.0038 -0.1539 -0.0077 -0.0063 -0.0217
                                         0.0114 -0.0044  0.0276 -0.0183
               ( 59.24%)  -0.7697* H 15 s(100.00%)
                                         1.0000  0.0015
 179. (0.01260) BD*( 1) C  7- O  8       
               ( 61.81%)   0.7862* C  7 s( 27.86%)p 2.58( 71.93%)d 0.01(  0.22%)
                                        -0.0001  0.5255  0.0490  0.0011 -0.0001
                                        -0.5468 -0.0297 -0.0077 -0.6332 -0.0355
                                        -0.0101  0.1307  0.0045  0.0005  0.0391
                                        -0.0086 -0.0086 -0.0048 -0.0218
               ( 38.19%)  -0.6180* O  8 s( 34.33%)p 1.90( 65.39%)d 0.01(  0.28%)
                                         0.0001  0.5858 -0.0094  0.0081 -0.0003
                                         0.5500 -0.0206 -0.0083  0.5816 -0.0246
                                        -0.0113 -0.1089  0.0055  0.0023  0.0448
                                        -0.0087 -0.0093 -0.0040 -0.0248
 180. (0.05195) BD*( 1) C  7- C  9       
               ( 52.23%)   0.7227* C  7 s( 24.24%)p 3.12( 75.59%)d 0.01(  0.16%)
                                         0.0000  0.4922 -0.0111 -0.0036 -0.0019
                                        -0.1663 -0.0160 -0.0065  0.6630 -0.0109
                                        -0.0094  0.5368  0.0051 -0.0052 -0.0054
                                         0.0003  0.0326 -0.0234  0.0004
               ( 47.77%)  -0.6912* C  9 s( 27.63%)p 2.61( 72.25%)d 0.00(  0.12%)
                                         0.0004  0.5256 -0.0050 -0.0067 -0.0016
                                         0.1837 -0.0171  0.0001 -0.6394 -0.0013
                                         0.0003 -0.5287  0.0111  0.0020 -0.0113
                                        -0.0068  0.0282 -0.0150  0.0033
 181. (0.00860) BD*( 1) C  9- H 10       
               ( 40.88%)   0.6394* C  9 s( 23.55%)p 3.24( 76.28%)d 0.01(  0.17%)
                                        -0.0001  0.4852  0.0040  0.0009  0.0003
                                        -0.8012 -0.0032  0.0000  0.3055  0.0015
                                         0.0051 -0.1659  0.0076  0.0036 -0.0236
                                         0.0127 -0.0042  0.0251 -0.0184
               ( 59.12%)  -0.7689* H 10 s(100.00%)
                                         1.0000  0.0021
 182. (0.00936) BD*( 1) C  9- H 11       
               ( 39.77%)   0.6307* C  9 s( 24.61%)p 3.06( 75.21%)d 0.01(  0.18%)
                                         0.0001 -0.4961 -0.0036 -0.0005 -0.0008
                                        -0.5671 -0.0053  0.0053 -0.6490 -0.0075
                                        -0.0011  0.0957 -0.0067 -0.0023 -0.0359
                                         0.0047  0.0061  0.0051  0.0207
               ( 60.23%)  -0.7761* H 11 s(100.00%)
                                        -1.0000 -0.0021
 183. (0.00558) BD*( 1) C  9- H 12       
               ( 39.64%)   0.6296* C  9 s( 24.18%)p 3.13( 75.65%)d 0.01(  0.17%)
                                         0.0000 -0.4917 -0.0020 -0.0043  0.0000
                                        -0.0222  0.0033  0.0015  0.2727 -0.0033
                                        -0.0039 -0.8256 -0.0014 -0.0027  0.0010
                                        -0.0017  0.0207  0.0032 -0.0352
               ( 60.36%)  -0.7769* H 12 s(100.00%)
                                        -1.0000 -0.0012
 SVNBO: NDIM =          183
 NBO state            0

 *******************************************************************************
Archival summary:
1\1\bt2600-16\OPT\HF\6-31+G*\456(2-,1)\emavera\SunApr2318:38:082017SunApr2318:38:082017\0\\#,OPT,HF,6-31+G*,\\-2,1\C\O,1,1.20485\C,1,1.54893,2,117.669\O,3,1.23767,1,116.195,2,-83.7877,0\O,3,1.24149,1,115.358,2,95.5413,0\C,1,1.57509,2,121.583,3,176.674,0\O,6,1.33231,1,114.048,2,33.4883,0\C,6,1.55589,1,108.457,2,157.942,0\H,8,1.08648,6,109.567,1,-66.0566,0\H,8,1.08932,6,114.39,1,55.9227,0\H,8,1.08988,6,107.389,1,176.885,0\C,6,1.56364,1,103.842,2,-88.0051,0\H,12,1.08721,6,108.524,1,65.9175,0\H,12,1.08894,6,113.885,1,-55.7015,0\H,12,1.09106,6,107.789,1,-177.37,0\\HF=-492.194338\\@

 Total job time:  2664.33s(wall), 2671.22s(cpu) 
 Sun Apr 23 18:38:08 2017

        *************************************************************
        *                                                           *
        *  Thank you very much for using Q-Chem.  Have a nice day.  *
        *                                                           *
        *************************************************************


0 sent ACK to 0 
now end server 0 ... 
cleanup process ... done
