Jobname.Temp
FOPT      R                             6-31+G(d)           
Number of atoms                            I               15
Charge                                     I               -2
Multiplicity                               I                1
Number of electrons                        I               70
Number of alpha electrons                  I               35
Number of beta electrons                   I               35
Atomic numbers                             I   N=          15
           6           8           8           6           6           8
           6           8           6           1           1           1
           1           1           1
Current cartesian coordinates              R   N=          45
  3.02236137E+00  5.55513241E-01 -1.20202350E-01  2.78125214E+00  2.87994216E+00
  2.79501647E-01  5.12716227E+00 -6.98081143E-01 -4.71619397E-01  6.96548884E-01
 -1.06603818E+00  2.18372927E-01 -2.84093912E+00  8.18327518E-01 -2.74940408E+00
  9.24188853E-01 -3.44988863E+00  5.97920220E-01 -2.11578084E+00 -1.34778431E-01
 -1.12315091E-02 -3.91271400E+00 -1.85514747E+00  6.46365317E-01 -2.49585545E+00
  2.09644483E+00  1.86411577E+00 -4.55429695E+00  2.62907128E+00  1.69985290E+00
 -1.50163456E+00  3.96872832E+00  1.10632840E+00 -2.08544039E+00  2.06494283E+00
  3.89677951E+00 -3.29064130E+00 -1.15323797E+00 -3.74487131E+00 -1.20411920E+00
  1.64452296E+00 -3.89394675E+00 -4.32099068E+00  2.21455932E+00 -2.69138962E+00
Nuclear charges                            R   N=          15
  6.00000000E+00  8.00000000E+00  8.00000000E+00  6.00000000E+00  6.00000000E+00
  8.00000000E+00  6.00000000E+00  8.00000000E+00  6.00000000E+00  1.00000000E+00
  1.00000000E+00  1.00000000E+00  1.00000000E+00  1.00000000E+00  1.00000000E+00
Number of basis functions                  I              183
Number of contracted shells                I               57
Number of primitive shells                 I              132
Highest angular momentum                   I                2
Largest degree of contraction              I                6
Shell types                                I   N=          57
           0          -1          -1          -1           2           0
          -1          -1          -1           2           0          -1
          -1          -1           2           0          -1          -1
          -1           2           0          -1          -1          -1
           2           0          -1          -1          -1           2
           0          -1          -1          -1           2           0
          -1          -1          -1           2           0          -1
          -1          -1           2           0           0           0
           0           0           0           0           0           0
           0           0           0
Number of primitives per shell             I   N=          57
           6           3           1           1           1           6
           3           1           1           1           6           3
           1           1           1           6           3           1
           1           1           6           3           1           1
           1           6           3           1           1           1
           6           3           1           1           1           6
           3           1           1           1           6           3
           1           1           1           3           1           3
           1           3           1           3           1           3
           1           3           1
Shell to atom map                          I   N=          57
           1           1           1           1           1           2
           2           2           2           2           3           3
           3           3           3           4           4           4
           4           4           5           5           5           5
           5           6           6           6           6           6
           7           7           7           7           7           8
           8           8           8           8           9           9
           9           9           9          10          10          11
          11          12          12          13          13          14
          14          15          15
Primitive exponents                        R   N=         132
  3.04752490E+03  4.57369510E+02  1.03948690E+02  2.92101550E+01  9.28666300E+00
  3.16392700E+00  7.86827240E+00  1.88128850E+00  5.44249300E-01  1.68714400E-01
  4.38000000E-02  8.00000000E-01  5.48467170E+03  8.25234950E+02  1.88046960E+02
  5.29645000E+01  1.68975700E+01  5.79963530E+00  1.55396160E+01  3.59993360E+00
  1.01376180E+00  2.70005800E-01  8.45000000E-02  8.00000000E-01  5.48467170E+03
  8.25234950E+02  1.88046960E+02  5.29645000E+01  1.68975700E+01  5.79963530E+00
  1.55396160E+01  3.59993360E+00  1.01376180E+00  2.70005800E-01  8.45000000E-02
  8.00000000E-01  3.04752490E+03  4.57369510E+02  1.03948690E+02  2.92101550E+01
  9.28666300E+00  3.16392700E+00  7.86827240E+00  1.88128850E+00  5.44249300E-01
  1.68714400E-01  4.38000000E-02  8.00000000E-01  3.04752490E+03  4.57369510E+02
  1.03948690E+02  2.92101550E+01  9.28666300E+00  3.16392700E+00  7.86827240E+00
  1.88128850E+00  5.44249300E-01  1.68714400E-01  4.38000000E-02  8.00000000E-01
  5.48467170E+03  8.25234950E+02  1.88046960E+02  5.29645000E+01  1.68975700E+01
  5.79963530E+00  1.55396160E+01  3.59993360E+00  1.01376180E+00  2.70005800E-01
  8.45000000E-02  8.00000000E-01  3.04752490E+03  4.57369510E+02  1.03948690E+02
  2.92101550E+01  9.28666300E+00  3.16392700E+00  7.86827240E+00  1.88128850E+00
  5.44249300E-01  1.68714400E-01  4.38000000E-02  8.00000000E-01  5.48467170E+03
  8.25234950E+02  1.88046960E+02  5.29645000E+01  1.68975700E+01  5.79963530E+00
  1.55396160E+01  3.59993360E+00  1.01376180E+00  2.70005800E-01  8.45000000E-02
  8.00000000E-01  3.04752490E+03  4.57369510E+02  1.03948690E+02  2.92101550E+01
  9.28666300E+00  3.16392700E+00  7.86827240E+00  1.88128850E+00  5.44249300E-01
  1.68714400E-01  4.38000000E-02  8.00000000E-01  1.87311370E+01  2.82539370E+00
  6.40121700E-01  1.61277800E-01  1.87311370E+01  2.82539370E+00  6.40121700E-01
  1.61277800E-01  1.87311370E+01  2.82539370E+00  6.40121700E-01  1.61277800E-01
  1.87311370E+01  2.82539370E+00  6.40121700E-01  1.61277800E-01  1.87311370E+01
  2.82539370E+00  6.40121700E-01  1.61277800E-01  1.87311370E+01  2.82539370E+00
  6.40121700E-01  1.61277800E-01
Contraction coefficients                   R   N=         132
  3.17779390E-03  2.43133190E-02  1.19238892E-01  4.02155213E-01  8.10498179E-01
  6.27542848E-01 -1.19332409E-01 -1.60854212E-01  1.14345648E+00  1.00000000E+00
  1.00000000E+00  1.00000000E+00  3.17155790E-03  2.41622794E-02  1.18550378E-01
  4.03072948E-01  8.14398079E-01  6.20976348E-01 -1.10777504E-01 -1.48026305E-01
  1.13076704E+00  1.00000000E+00  1.00000000E+00  1.00000000E+00  3.17155790E-03
  2.41622794E-02  1.18550378E-01  4.03072948E-01  8.14398079E-01  6.20976348E-01
 -1.10777504E-01 -1.48026305E-01  1.13076704E+00  1.00000000E+00  1.00000000E+00
  1.00000000E+00  3.17779390E-03  2.43133190E-02  1.19238892E-01  4.02155213E-01
  8.10498179E-01  6.27542848E-01 -1.19332409E-01 -1.60854212E-01  1.14345648E+00
  1.00000000E+00  1.00000000E+00  1.00000000E+00  3.17779390E-03  2.43133190E-02
  1.19238892E-01  4.02155213E-01  8.10498179E-01  6.27542848E-01 -1.19332409E-01
 -1.60854212E-01  1.14345648E+00  1.00000000E+00  1.00000000E+00  1.00000000E+00
  3.17155790E-03  2.41622794E-02  1.18550378E-01  4.03072948E-01  8.14398079E-01
  6.20976348E-01 -1.10777504E-01 -1.48026305E-01  1.13076704E+00  1.00000000E+00
  1.00000000E+00  1.00000000E+00  3.17779390E-03  2.43133190E-02  1.19238892E-01
  4.02155213E-01  8.10498179E-01  6.27542848E-01 -1.19332409E-01 -1.60854212E-01
  1.14345648E+00  1.00000000E+00  1.00000000E+00  1.00000000E+00  3.17155790E-03
  2.41622794E-02  1.18550378E-01  4.03072948E-01  8.14398079E-01  6.20976348E-01
 -1.10777504E-01 -1.48026305E-01  1.13076704E+00  1.00000000E+00  1.00000000E+00
  1.00000000E+00  3.17779390E-03  2.43133190E-02  1.19238892E-01  4.02155213E-01
  8.10498179E-01  6.27542848E-01 -1.19332409E-01 -1.60854212E-01  1.14345648E+00
  1.00000000E+00  1.00000000E+00  1.00000000E+00  5.80143482E-02  4.06558998E-01
  1.40946902E+00  1.73205081E+00  5.80143482E-02  4.06558998E-01  1.40946902E+00
  1.73205081E+00  5.80143482E-02  4.06558998E-01  1.40946902E+00  1.73205081E+00
  5.80143482E-02  4.06558998E-01  1.40946902E+00  1.73205081E+00  5.80143482E-02
  4.06558998E-01  1.40946902E+00  1.73205081E+00  5.80143482E-02  4.06558998E-01
  1.40946902E+00  1.73205081E+00
P(S=P) Contraction coefficients            R   N=         132
  0.00000000E+00  0.00000000E+00  0.00000000E+00  0.00000000E+00  0.00000000E+00
  0.00000000E+00  1.19509939E-01  5.48062410E-01  1.28917971E+00  1.73205081E+00
  1.73205081E+00  0.00000000E+00  0.00000000E+00  0.00000000E+00  0.00000000E+00
  0.00000000E+00  0.00000000E+00  0.00000000E+00  1.22757888E-01  5.88469108E-01
  1.25947563E+00  1.73205081E+00  1.73205081E+00  0.00000000E+00  0.00000000E+00
  0.00000000E+00  0.00000000E+00  0.00000000E+00  0.00000000E+00  0.00000000E+00
  1.22757888E-01  5.88469108E-01  1.25947563E+00  1.73205081E+00  1.73205081E+00
  0.00000000E+00  0.00000000E+00  0.00000000E+00  0.00000000E+00  0.00000000E+00
  0.00000000E+00  0.00000000E+00  1.19509939E-01  5.48062410E-01  1.28917971E+00
  1.73205081E+00  1.73205081E+00  0.00000000E+00  0.00000000E+00  0.00000000E+00
  0.00000000E+00  0.00000000E+00  0.00000000E+00  0.00000000E+00  1.19509939E-01
  5.48062410E-01  1.28917971E+00  1.73205081E+00  1.73205081E+00  0.00000000E+00
  0.00000000E+00  0.00000000E+00  0.00000000E+00  0.00000000E+00  0.00000000E+00
  0.00000000E+00  1.22757888E-01  5.88469108E-01  1.25947563E+00  1.73205081E+00
  1.73205081E+00  0.00000000E+00  0.00000000E+00  0.00000000E+00  0.00000000E+00
  0.00000000E+00  0.00000000E+00  0.00000000E+00  1.19509939E-01  5.48062410E-01
  1.28917971E+00  1.73205081E+00  1.73205081E+00  0.00000000E+00  0.00000000E+00
  0.00000000E+00  0.00000000E+00  0.00000000E+00  0.00000000E+00  0.00000000E+00
  1.22757888E-01  5.88469108E-01  1.25947563E+00  1.73205081E+00  1.73205081E+00
  0.00000000E+00  0.00000000E+00  0.00000000E+00  0.00000000E+00  0.00000000E+00
  0.00000000E+00  0.00000000E+00  1.19509939E-01  5.48062410E-01  1.28917971E+00
  1.73205081E+00  1.73205081E+00  0.00000000E+00  0.00000000E+00  0.00000000E+00
  0.00000000E+00  0.00000000E+00  0.00000000E+00  0.00000000E+00  0.00000000E+00
  0.00000000E+00  0.00000000E+00  0.00000000E+00  0.00000000E+00  0.00000000E+00
  0.00000000E+00  0.00000000E+00  0.00000000E+00  0.00000000E+00  0.00000000E+00
  0.00000000E+00  0.00000000E+00  0.00000000E+00  0.00000000E+00  0.00000000E+00
  0.00000000E+00  0.00000000E+00
Coordinates of each shell                  R   N=         171
  3.02236137E+00  5.55513241E-01 -1.20202350E-01  3.02236137E+00  5.55513241E-01
 -1.20202350E-01  3.02236137E+00  5.55513241E-01 -1.20202350E-01  3.02236137E+00
  5.55513241E-01 -1.20202350E-01  3.02236137E+00  5.55513241E-01 -1.20202350E-01
  2.78125214E+00  2.87994216E+00  2.79501647E-01  2.78125214E+00  2.87994216E+00
  2.79501647E-01  2.78125214E+00  2.87994216E+00  2.79501647E-01  2.78125214E+00
  2.87994216E+00  2.79501647E-01  2.78125214E+00  2.87994216E+00  2.79501647E-01
  5.12716227E+00 -6.98081143E-01 -4.71619397E-01  5.12716227E+00 -6.98081143E-01
 -4.71619397E-01  5.12716227E+00 -6.98081143E-01 -4.71619397E-01  5.12716227E+00
 -6.98081143E-01 -4.71619397E-01  5.12716227E+00 -6.98081143E-01 -4.71619397E-01
  6.96548884E-01 -1.06603818E+00  2.18372927E-01  6.96548884E-01 -1.06603818E+00
  2.18372927E-01  6.96548884E-01 -1.06603818E+00  2.18372927E-01  6.96548884E-01
 -1.06603818E+00  2.18372927E-01  6.96548884E-01 -1.06603818E+00  2.18372927E-01
 -2.84093912E+00  8.18327518E-01 -2.74940408E+00 -2.84093912E+00  8.18327518E-01
 -2.74940408E+00 -2.84093912E+00  8.18327518E-01 -2.74940408E+00 -2.84093912E+00
  8.18327518E-01 -2.74940408E+00 -2.84093912E+00  8.18327518E-01 -2.74940408E+00
  9.24188853E-01 -3.44988863E+00  5.97920220E-01  9.24188853E-01 -3.44988863E+00
  5.97920220E-01  9.24188853E-01 -3.44988863E+00  5.97920220E-01  9.24188853E-01
 -3.44988863E+00  5.97920220E-01  9.24188853E-01 -3.44988863E+00  5.97920220E-01
 -2.11578084E+00 -1.34778431E-01 -1.12315091E-02 -2.11578084E+00 -1.34778431E-01
 -1.12315091E-02 -2.11578084E+00 -1.34778431E-01 -1.12315091E-02 -2.11578084E+00
 -1.34778431E-01 -1.12315091E-02 -2.11578084E+00 -1.34778431E-01 -1.12315091E-02
 -3.91271400E+00 -1.85514747E+00  6.46365317E-01 -3.91271400E+00 -1.85514747E+00
  6.46365317E-01 -3.91271400E+00 -1.85514747E+00  6.46365317E-01 -3.91271400E+00
 -1.85514747E+00  6.46365317E-01 -3.91271400E+00 -1.85514747E+00  6.46365317E-01
 -2.49585545E+00  2.09644483E+00  1.86411577E+00 -2.49585545E+00  2.09644483E+00
  1.86411577E+00 -2.49585545E+00  2.09644483E+00  1.86411577E+00 -2.49585545E+00
  2.09644483E+00  1.86411577E+00 -2.49585545E+00  2.09644483E+00  1.86411577E+00
 -4.55429695E+00  2.62907128E+00  1.69985290E+00 -4.55429695E+00  2.62907128E+00
  1.69985290E+00 -1.50163456E+00  3.96872832E+00  1.10632840E+00 -1.50163456E+00
  3.96872832E+00  1.10632840E+00 -2.08544039E+00  2.06494283E+00  3.89677951E+00
 -2.08544039E+00  2.06494283E+00  3.89677951E+00 -3.29064130E+00 -1.15323797E+00
 -3.74487131E+00 -3.29064130E+00 -1.15323797E+00 -3.74487131E+00 -1.20411920E+00
  1.64452296E+00 -3.89394675E+00 -1.20411920E+00  1.64452296E+00 -3.89394675E+00
 -4.32099068E+00  2.21455932E+00 -2.69138962E+00 -4.32099068E+00  2.21455932E+00
 -2.69138962E+00
SCF Energy                                 R     -4.921247017174179E+02
Dipole_Data                                R   N=           3
 -2.03235486E+00  3.74186138E+00 -1.30705198E+00
Quadrupole_Data                            R   N=           6
 -1.10761133E+02 -8.75438120E+00 -8.31459212E+01  4.35305830E+00  1.80458757E+00
 -6.24319830E+01
Octapole_Data                              R   N=          10
 -1.86932974E+01  1.73359788E+01 -1.09341308E+00 -1.47274061E+00  8.83616686E-01
 -4.33803136E+00 -7.23216575E+00  1.20880087E+01 -3.86650963E+00  9.05864498E+00
Hexadecapole_Data                          R   N=          15
 -1.33112860E+03 -2.76314015E+01 -2.93802460E+02 -1.19506815E+01 -5.14498769E+02
  3.17218649E+01 -2.45418133E-01  3.73715035E+00 -6.60518891E-01 -2.30326795E+02
  4.87936061E+00 -1.26103534E+02 -9.51469139E+00  2.65726605E+00 -2.92990636E+02
Cartesian Forces                           R   N=          45
  9.26820142E-02 -3.29868075E-03  1.90694479E-02  6.50708974E-03 -3.54798299E-02
 -1.66127735E-02 -7.06047578E-02  5.01199090E-02  9.89949773E-04 -3.72849971E-02
 -1.43197033E-01 -3.44864189E-03  5.54417094E-02 -5.10599860E-02 -3.09709759E-02
  4.15484345E-03  1.19118846E-01 -1.31487270E-02 -3.70820269E-02  1.59061078E-03
  3.42423856E-02  1.97153275E-02 -6.92158586E-04 -7.99256601E-03 -8.80635304E-03
  9.44783720E-02 -3.37158510E-02  1.92568952E-02 -1.33494676E-02  6.06101492E-03
 -1.63500522E-02 -4.26115750E-02  2.09723710E-02  6.00249306E-03 -1.95275331E-02
 -1.04067001E-02 -2.24745648E-03  5.60876759E-02  1.90086833E-02 -2.09907527E-02
 -5.57934910E-03  1.75680058E-02 -1.03939765E-02 -6.59979994E-03 -1.61562288E-03
Current cartesian coordinates              R   N=          45
  3.00461149E+00  5.35897365E-01 -1.20559729E-01  2.75364512E+00  2.85810171E+00
  1.08658397E-01  5.04129231E+00 -6.44925141E-01 -6.31103850E-01  6.45374441E-01
 -1.10300733E+00  2.55940346E-01 -2.74579415E+00  7.92207699E-01 -2.72162736E+00
  9.25742736E-01 -3.39243310E+00  6.60054943E-01 -2.15424954E+00 -1.38806013E-01
  3.55894535E-02 -3.93406388E+00 -1.86860014E+00  6.58854415E-01 -2.54437045E+00
  2.14154358E+00  1.85774818E+00 -4.57363586E+00  2.66124929E+00  1.70623468E+00
 -1.54132862E+00  3.93823040E+00  1.17572838E+00 -2.11897653E+00  1.99249657E+00
  3.87019351E+00 -3.21143709E+00 -1.05070559E+00 -3.74315598E+00 -1.08864573E+00
  1.60191569E+00 -3.76775756E+00 -4.22906323E+00  2.19171565E+00 -2.71822615E+00
SCF Energy                                 R     -4.921603022570481E+02
Dipole_Data                                R   N=           3
 -1.73854081E+00  3.50385570E+00 -9.41792623E-01
Quadrupole_Data                            R   N=           6
 -1.09792166E+02 -9.34709332E+00 -8.24370091E+01  5.68762547E+00  2.29094240E+00
 -6.22128557E+01
Octapole_Data                              R   N=          10
 -1.15505438E+01  1.65877573E+01 -6.14590583E-02 -1.80525075E+00  3.33264996E+00
 -3.81817246E+00 -6.40312724E+00  1.23518542E+01 -4.09148296E+00  8.91156838E+00
Hexadecapole_Data                          R   N=          15
 -1.30173138E+03 -3.28115994E+01 -2.90058421E+02 -1.57291656E+01 -5.03596739E+02
  4.92030525E+01  2.39004277E+00  8.16712398E+00  3.87529546E+00 -2.27425361E+02
  4.65623865E+00 -1.24925756E+02  3.33491742E+00  4.56088749E+00 -2.88466261E+02
Cartesian Forces                           R   N=          45
  5.77953925E-02 -6.33906462E-04 -1.03655472E-02  6.26383659E-04 -1.21799845E-02
 -1.28464607E-03 -4.17744907E-02  2.42133385E-02  8.49023799E-03 -2.11268280E-02
 -8.63966075E-02  2.75572809E-03  4.11707210E-02 -3.27887042E-02 -2.12330750E-02
  1.66123852E-03  6.58211223E-02 -6.90616939E-03 -2.96689102E-02  2.85360956E-03
  2.40063385E-02  1.43885614E-02 -1.37928960E-04 -4.69435690E-03 -1.79031236E-03
  6.55959556E-02 -2.46956516E-02  1.00762316E-02 -1.07544409E-02  4.67441716E-03
 -9.01174837E-03 -2.95290799E-02  1.26628897E-02  3.82242572E-03 -1.46194477E-02
 -5.11734955E-03 -3.73500272E-03  3.42426985E-02  1.21168406E-02 -1.35365670E-02
 -1.27926833E-03  1.17463525E-02 -8.89709514E-03 -4.40735602E-03 -2.15600895E-03
Current cartesian coordinates              R   N=          45
  2.95719170E+00  5.59754724E-01 -2.24919641E-01  2.70123823E+00  2.85337843E+00
  1.40189626E-01  4.97244105E+00 -5.88354432E-01 -6.00000804E-01  5.95956582E-01
 -1.13333288E+00  2.42754487E-01 -2.70288900E+00  7.55107241E-01 -2.71710596E+00
  9.42878929E-01 -3.33466168E+00  6.74535683E-01 -2.19604218E+00 -1.40016143E-01
  5.81288573E-02 -3.94988200E+00 -1.86475647E+00  7.00622795E-01 -2.53671666E+00
  2.18724838E+00  1.82807910E+00 -4.54328998E+00  2.69759374E+00  1.72333709E+00
 -1.51279242E+00  3.88530187E+00  1.18433721E+00 -2.06352315E+00  1.90420772E+00
  3.81002789E+00 -3.20251164E+00 -9.73967893E-01 -3.74663846E+00 -1.04102773E+00
  1.54846278E+00 -3.68903070E+00 -4.19193073E+00  2.15891525E+00 -2.75774550E+00
SCF Energy                                 R     -4.921751361284133E+02
Dipole_Data                                R   N=           3
 -1.40948582E+00  3.21120668E+00 -1.27692387E+00
Quadrupole_Data                            R   N=           6
 -1.08977238E+02 -9.70884968E+00 -8.17649063E+01  5.54711683E+00  2.28897998E+00
 -6.20062064E+01
Octapole_Data                              R   N=          10
 -4.84710216E+00  1.52529741E+01  1.14213966E+00 -3.56458544E+00  1.53823325E+00
 -4.22035532E+00 -6.55715927E+00  1.34312080E+01 -4.70566536E+00  7.70698366E+00
Hexadecapole_Data                          R   N=          15
 -1.27517652E+03 -3.83526262E+01 -2.85864535E+02 -1.95949174E+01 -4.94596478E+02
  5.02532626E+01  3.00290771E+00  8.67885566E+00  4.74341716E+00 -2.23884029E+02
  4.11337583E+00 -1.23817641E+02  6.13846334E+00  4.33524837E+00 -2.85139937E+02
Cartesian Forces                           R   N=          45
  2.68222871E-02 -2.58409777E-03  2.33904348E-02 -2.80409853E-03  4.93323947E-03
 -9.25542975E-03 -9.47925164E-03  5.15761228E-03 -1.04115872E-02 -1.65266448E-02
 -2.04467058E-02 -1.21612189E-02  2.65397161E-02 -1.18041282E-02 -7.24624613E-03
  3.05631497E-03  7.87562218E-03  3.01587481E-03 -1.95669248E-02  2.36933836E-03
  1.74228255E-02  6.97622587E-03 -1.49995429E-03 -3.16695776E-03 -1.21911360E-03
  3.28932895E-02 -1.40108950E-02  1.69623088E-03 -6.90500986E-03  3.81915833E-03
 -2.57771362E-04 -1.12525926E-02  5.13321160E-03  1.54521771E-03 -8.54192295E-03
 -2.08376951E-03 -5.68664124E-03  9.59787787E-03  1.96361186E-03 -5.04594223E-03
  2.93372257E-03  5.27474295E-03 -6.04960442E-03 -2.72629082E-03 -1.68375558E-03
Current cartesian coordinates              R   N=          45
  2.93470344E+00  5.65765678E-01 -1.92070976E-01  2.60139901E+00  2.88161274E+00
 -8.13007243E-02  4.87567947E+00 -5.64016405E-01 -8.00390924E-01  5.55505354E-01
 -1.15915314E+00  3.13877157E-01 -2.60574126E+00  7.50138557E-01 -2.70017397E+00
  9.25760399E-01 -3.32361655E+00  7.94493517E-01 -2.22909046E+00 -1.35013989E-01
  9.95013625E-02 -3.98331061E+00 -1.85766043E+00  7.02631346E-01 -2.56299943E+00
  2.21054542E+00  1.84126809E+00 -4.56177498E+00  2.70804527E+00  1.73496284E+00
 -1.49047461E+00  3.84483623E+00  1.25003589E+00 -2.10357795E+00  1.80545950E+00
  3.80637158E+00 -3.10590751E+00 -9.18015189E-01 -3.76713023E+00 -9.15979350E-01
  1.55519852E+00 -3.57054529E+00 -4.10509050E+00  2.15075440E+00 -2.80495799E+00
SCF Energy                                 R     -4.921807848759668E+02
Dipole_Data                                R   N=           3
 -9.63702889E-01  3.06801445E+00 -7.22498005E-01
Quadrupole_Data                            R   N=           6
 -1.07692013E+02 -9.84366508E+00 -8.17554794E+01  7.00664836E+00  3.03830960E+00
 -6.24282111E+01
Octapole_Data                              R   N=          10
  4.11395241E+00  1.50967372E+01  2.20449127E+00 -4.59996957E+00  4.71306590E+00
 -3.09770587E+00 -5.88317031E+00  1.35838272E+01 -4.89974085E+00  8.30415885E+00
Hexadecapole_Data                          R   N=          15
 -1.24103357E+03 -4.05954782E+01 -2.82227377E+02 -2.11023049E+01 -4.94857458E+02
  6.78329244E+01  6.55653775E+00  1.33106547E+01  1.18967330E+01 -2.22828706E+02
  4.21044831E+00 -1.25624015E+02  1.80581567E+01  8.45377606E+00 -2.89335499E+02
Cartesian Forces                           R   N=          45
 -4.66210838E-03  4.98272018E-03 -1.30142789E-02  3.72580426E-03  1.12525578E-03
  4.92526472E-03  6.60989806E-03 -2.05897799E-03  2.18858482E-03 -6.93131019E-03
  8.67077355E-03 -1.44304495E-03  1.60231615E-02 -3.92915368E-04  1.73022450E-04
  3.66160235E-03 -1.39046408E-02  6.05878503E-03 -1.22110367E-02 -3.06933997E-04
  5.69691674E-03  2.82870422E-03 -1.25780128E-03 -1.29149492E-03 -1.89155011E-03
  9.93374381E-03 -5.37069211E-03 -5.23513758E-04 -3.49346719E-03  3.13271151E-03
  4.54759164E-03  4.26526852E-04  8.46731061E-04 -1.28150786E-04 -3.48099444E-03
 -5.29363389E-04 -5.25576929E-03 -1.91845115E-03 -2.69827706E-03 -1.96959451E-03
  3.58168030E-03  2.36635526E-03 -3.82372829E-03 -1.90651832E-03 -1.04122027E-03
Current cartesian coordinates              R   N=          45
  2.93184662E+00  5.35519719E-01 -3.21551612E-01  2.66129082E+00  2.86245446E+00
 -2.59018920E-01  4.85549862E+00 -6.45302665E-01 -8.97082586E-01  5.35890858E-01
 -1.14248734E+00  3.53331096E-01 -2.54974269E+00  7.72573076E-01 -2.68638954E+00
  9.18157565E-01 -3.27546432E+00  9.85255955E-01 -2.25571841E+00 -1.22761918E-01
  1.20121581E-01 -3.99508440E+00 -1.87316542E+00  6.73598899E-01 -2.61328689E+00
  2.22273669E+00  1.86225823E+00 -4.61740158E+00  2.69148569E+00  1.76854314E+00
 -1.51280009E+00  3.85550129E+00  1.32010001E+00 -2.16793302E+00  1.74508516E+00
  3.81410153E+00 -2.95558129E+00 -8.92192179E-01 -3.80814368E+00 -8.79955304E-01
  1.69424969E+00 -3.46505607E+00 -4.12607978E+00  2.08664871E+00 -2.83349637E+00
SCF Energy                                 R     -4.921833000030415E+02
Dipole_Data                                R   N=           3
 -1.06522284E+00  3.20100142E+00 -5.12642504E-01
Quadrupole_Data                            R   N=           6
 -1.07752606E+02 -9.68691396E+00 -8.16055765E+01  7.40178803E+00  3.75281880E+00
 -6.28951398E+01
Octapole_Data                              R   N=          10
  4.46691935E+00  1.60084142E+01  2.22181745E+00 -4.54713413E+00  7.13371138E+00
 -2.33748438E+00 -5.26423416E+00  1.27722141E+01 -4.27708098E+00  9.39579435E+00
Hexadecapole_Data                          R   N=          15
 -1.24162431E+03 -3.79920799E+01 -2.83791065E+02 -1.90162055E+01 -4.89712701E+02
  7.87776634E+01  8.42130365E+00  1.68808685E+01  1.95557139E+01 -2.25535043E+02
  5.40919081E+00 -1.27571085E+02  2.64161431E+01  1.34960310E+01 -2.96150405E+02
Cartesian Forces                           R   N=          45
 -1.25119164E-03  2.50860760E-03 -4.92184693E-03 -6.44691128E-04  3.50085627E-04
  3.57279247E-03  2.42525255E-03 -2.10619429E-03 -1.22234615E-04 -1.91860030E-03
  3.06762745E-03 -7.06471354E-04  8.46227581E-03  8.50240619E-04  5.82251106E-05
  1.88533567E-03 -3.58271485E-03  4.35806202E-03 -6.96856182E-03 -2.78309025E-03
 -1.24723091E-03  1.96357715E-03  2.48821980E-03 -2.95346869E-04  1.67058718E-04
  1.22208859E-03 -1.63157503E-03  1.02573591E-04 -9.64689261E-04  1.39519962E-03
  3.36139939E-03  1.05496841E-03 -3.80623518E-04 -2.88607844E-04 -1.18177770E-03
  5.19128817E-04 -2.34018658E-03 -1.39465436E-03 -1.75544756E-03 -1.95483096E-03
  1.93505502E-03  1.75781041E-03 -3.00080260E-03 -1.46377245E-03 -6.00441669E-04
Current cartesian coordinates              R   N=          45
  2.91110943E+00  5.45389785E-01 -3.14790526E-01  2.65817578E+00  2.86640855E+00
 -1.07703516E-01  4.83268669E+00 -6.15143144E-01 -9.48239307E-01  5.11763639E-01
 -1.15640582E+00  3.32845856E-01 -2.56463699E+00  7.59742635E-01 -2.70513698E+00
  9.13122807E-01 -3.25860532E+00  1.07018307E+00 -2.28224403E+00 -1.31873805E-01
  1.04281012E-01 -4.02495837E+00 -1.86477451E+00  6.80241510E-01 -2.57263262E+00
  2.23191100E+00  1.83484755E+00 -4.56351439E+00  2.75024895E+00  1.76659492E+00
 -1.39819610E+00  3.82177968E+00  1.30009964E+00 -2.13246899E+00  1.70817400E+00
  3.77698031E+00 -2.89462337E+00 -9.09712915E-01 -3.85671012E+00 -9.45335894E-01
  1.78978581E+00 -3.44078682E+00 -4.21914657E+00  1.97795574E+00 -2.86613492E+00
SCF Energy                                 R     -4.921846105808756E+02
Dipole_Data                                R   N=           3
 -1.01060493E+00  3.16424604E+00 -7.58405336E-01
Quadrupole_Data                            R   N=           6
 -1.07856884E+02 -9.77213199E+00 -8.14126848E+01  7.20895388E+00  3.47700154E+00
 -6.32092723E+01
Octapole_Data                              R   N=          10
  6.91292319E+00  1.55436471E+01  2.74160338E+00 -5.02050080E+00  6.83569686E+00
 -3.02616078E+00 -6.59313059E+00  1.27695432E+01 -3.95916339E+00  8.59444582E+00
Hexadecapole_Data                          R   N=          15
 -1.23926527E+03 -4.23222878E+01 -2.83248546E+02 -2.09465216E+01 -4.87971850E+02
  7.63779787E+01  7.16674364E+00  1.44240444E+01  1.82388942E+01 -2.26284247E+02
  4.99423541E+00 -1.27964408E+02  2.31279877E+01  1.25851399E+01 -2.99389241E+02
Cartesian Forces                           R   N=          45
 -1.76674843E-04 -3.44570168E-04 -2.45753220E-03 -1.15906078E-05 -1.09468941E-03
  1.22617022E-03 -4.47735274E-04 -1.21530241E-03 -1.51586831E-03  1.14360600E-03
  2.61886846E-03  6.38122633E-03  9.04318302E-04 -1.42656318E-04  5.90360844E-04
  5.36398778E-04  1.03310987E-03  3.68623845E-05 -2.58862605E-03 -2.68801928E-03
 -4.47687827E-03  1.34315322E-03  2.92482581E-03 -1.20039874E-03  1.68208618E-03
 -5.00393786E-04  2.22228126E-04 -4.54653786E-04  1.56760996E-04  3.55101290E-04
 -3.00699540E-04 -8.37549334E-04  3.17307326E-04 -3.97587632E-04  2.41388060E-04
  7.14388171E-04  4.31978776E-04 -1.57671535E-04 -7.87660297E-04 -2.46187779E-05
  1.13312200E-03  5.85337064E-04 -1.63935474E-03 -1.12722301E-03  9.35603558E-06
Current cartesian coordinates              R   N=          45
  2.89452857E+00  5.26957047E-01 -3.83124341E-01  2.70073999E+00  2.84825255E+00
 -1.24781140E-01  4.75456093E+00 -6.70245137E-01 -1.12939806E+00  5.02803932E-01
 -1.13163952E+00  4.04086444E-01 -2.52557146E+00  7.70224041E-01 -2.70041745E+00
  9.20877135E-01 -3.20585459E+00  1.21529908E+00 -2.29674801E+00 -1.31097507E-01
  1.10583799E-01 -4.04145160E+00 -1.86195471E+00  6.59533036E-01 -2.59342141E+00
  2.22983498E+00  1.84341540E+00 -4.57551648E+00  2.77380608E+00  1.75377617E+00
 -1.36953989E+00  3.79796106E+00  1.34476521E+00 -2.19559101E+00  1.67269396E+00
  3.78688430E+00 -2.74113921E+00 -8.97031579E-01 -3.88993006E+00 -9.53122558E-01
  1.91002614E+00 -3.36242855E+00 -4.25230789E+00  1.88294781E+00 -2.90169218E+00
SCF Energy                                 R     -4.921859707715037E+02
Dipole_Data                                R   N=           3
 -9.77976683E-01  3.22751811E+00 -5.91598928E-01
Quadrupole_Data                            R   N=           6
 -1.07400563E+02 -9.65686076E+00 -8.12004368E+01  7.81077115E+00  3.51479646E+00
 -6.38406615E+01
Octapole_Data                              R   N=          10
  1.02694813E+01  1.56569317E+01  2.91549122E+00 -5.42029893E+00  8.98733506E+00
 -3.02369751E+00 -6.77500966E+00  1.15251795E+01 -3.28142269E+00  9.17244244E+00
Hexadecapole_Data                          R   N=          15
 -1.22431113E+03 -4.18623989E+01 -2.82485308E+02 -1.97108077E+01 -4.81453430E+02
  8.64476000E+01  6.52323627E+00  1.62535168E+01  2.05243643E+01 -2.28946348E+02
  5.96905433E+00 -1.29544554E+02  2.97210665E+01  1.42409911E+01 -3.08164510E+02
Cartesian Forces                           R   N=          45
 -3.31608426E-04 -2.34778028E-03  2.41641663E-03  4.24713608E-04 -3.04342679E-04
  4.42615017E-04 -2.38416607E-03  4.45152731E-04 -2.15918496E-03  2.92755364E-03
 -1.15718995E-03 -1.88365362E-03 -3.35200559E-03 -1.15465551E-03  6.46958219E-04
 -5.82261456E-04  3.27739283E-03  2.21789576E-03  6.72028602E-04 -6.09402033E-04
 -3.02769542E-03  4.14976569E-04  1.63011695E-03 -1.31696943E-03  2.60899306E-03
 -1.19043353E-03  1.46190551E-03 -5.29163977E-04  1.22873551E-03 -3.29427696E-04