
Running Job 1 of 2 irc1030.qcin
qchem irc1030.qcin_36115.0 /tmp/irc1030.qcin/ 1
/programs/x86_64/lib/qchem-4.3.2/bin/mpi/mpirun_qchem -machinefile /var/spool/torque/aux//119449.vali -np 1 /programs/x86_64/lib/qchem-4.3.2/exe/qcprog.exe irc1030.qcin_36115.0 /tmp/irc1030.qcin/

Process 0 of 1 is on bt2600-16.csail.mit.edu - thread support 0
initial socket setup ...start
initial socket setup ...done 
now start server 0 ...                                                                                                                                                                                                                                                                                                                                                                                                                                                                                                                                                                                                                                                                                                                                                                                                                                                                                                                                                                                                                                                                                                                                                                                                                                                                                                                                                                                                                                                                           

cmd = ssh thor /programs/x86_64/lib/qchem-4.3.2/bin/get_hostid 812999815 > /tmp/irc1030.qcin/lic.dat
                  Welcome to Q-Chem
     A Quantum Leap Into The Future Of Chemistry


 Q-Chem 4.3, Q-Chem, Inc., Pleasanton, CA (2015)

 Y. Shao,  Z. Gan,  E. Epifanovsky,  A. T. B. Gilbert,  M. Wormit,  
 J. Kussmann,  A. W. Lange,  A. Behn,  J. Deng,  X. Feng,  D. Ghosh,  
 M. Goldey,  P. R. Horn,  L. D. Jacobson,  I. Kaliman,  R. Z. Khaliullin,  
 T. Kus,  A. Landau,  J. Liu,  E. I. Proynov,  Y. M. Rhee,  R. M. Richard,  
 M. A. Rohrdanz,  R. P. Steele,  E. J. Sundstrom,  H. L. Woodcock III,  
 P. M. Zimmerman,  D. Zuev,  B. Albrecht,  E. Alguire,  B. Austin,  
 S. A. Baeppler,  G. J. O. Beran,  Y. A. Bernard,  E. Berquist,  
 K. Brandhorst,  K. B. Bravaya,  S. T. Brown,  D. Casanova,  C.-M. Chang,  
 Y. Chen,  S. H. Chien,  K. D. Closser,  D. L. Crittenden,  M. Diedenhofen,  
 R. A. DiStasio Jr.,  H. Do,  A. D. Dutoi,  R. G. Edgar,  P.-T. Fang,  
 S. Fatehi,  Q. Feng,  L. Fusti-Molnar,  A. Ghysels,                                 
 A. Golubeva-Zadorozhnaya,  J. Gomes,  A. Gunina,  M. W. D. Hanson-Heine,  
 P. H. P. Harbach,  A. W. Hauser,  E. G. Hohenstein,  Z. C. Holden,  K. Hui,  
 T.-C. Jagau,  H. Ji,  B. Kaduk,  K. Khistyaev,  Jaehoon Kim,  Jihan Kim,  
 R. A. King,  P. Klunzinger,  D. Kosenkov,  T. Kowalczyk,  C. M. Krauter,  
 K. U. Lao,  A. Laurent,  K. V. Lawler,  S. Lehtola,  S. V. Levchenko,  
 C. Y. Lin,  Y.-S. Lin,  F. Liu,  E. Livshits,  R. C. Lochan,  A. Luenser,  
 P. Manohar,  S. F. Manzer,  S.-P. Mao,  N. Mardirossian,  A. V. Marenich,  
 L. A. Martinez-Martinez,  S. A. Maurer,  N. J. Mayhall,  K. Nanda,  
 C. M. Oana,  R. Olivares-Amaya,  D. P. O'Neill,  J. A. Parkhill,  
 T. M. Perrine,  R. Peverati,  P. A. Pieniazek,  F. Plasser,  A. Prociuk,  
 D. R. Rehn,  E. Rosta,  N. J. Russ,  N. Sergueev,  S. M. Sharada,  
 S. Sharma,  D. W. Small,  A. Sodt,  T. Stauch,  T. Stein,  D. Stuck,  
 Y.-C. Su,  A. J. W. Thom,  T. Tsuchimochi,  L. Vogt,  O. Vydrov,  T. Wang,  
 M. A. Watson,  J. Wenzel,  A. White,  C. F. Williams,  V. Vanovschi,  
 S. Yeganeh,  S. R. Yost,  Z.-Q. You,  I. Y. Zhang,  X. Zhang,  Y. Zhao,  
 B. R. Brooks,  G. K. L. Chan,  D. M. Chipman,  C. J. Cramer,  
 W. A. Goddard III,  M. S. Gordon,  W. J. Hehre,  A. Klamt,  
 H. F. Schaefer III,  M. W. Schmidt,  C. D. Sherrill,  D. G. Truhlar,  
 A. Warshel,  X. Xu,  A. Aspuru-Guzik,  R. Baer,  A. T. Bell,  N. A. Besley,  
 J.-D. Chai,  A. Dreuw,  B. D. Dunietz,  T. R. Furlani,  S. R. Gwaltney,  
 C.-P. Hsu,  Y. Jung,  J. Kong,  D. S. Lambrecht,  W. Liang,  C. Ochsenfeld,  
 V. A. Rassolov,  L. V. Slipchenko,  J. E. Subotnik,  T. Van Voorhis,  
 J. M. Herbert,  A. I. Krylov,  P. M. W. Gill,  M. Head-Gordon

 Contributors to earlier versions of Q-Chem not listed above: 
 R. D. Adamson,  J. Baker,  E. F. C. Byrd,  A. K. Chakraborty,  C.-L. Cheng,  
 H. Dachsel,  R. J. Doerksen,  G. Hawkins,  A. Heyden,  S. Hirata,  
 G. Kedziora,  F. J. Keil,  C. Kelley,  P. P. Korambath,  W. Kurlancheek,  
 A. M. Lee,  M. S. Lee,  D. Liotard,  I. Lotan,  P. E. Maslen,  N. Nair,  
 D. Neuhauser,  R. Olson,  B. Peters,  J. Ritchie,  N. E. Schultz,  
 N. Shenvi,  A. C. Simmonett,  K. S. Thanthiriwatte,  Q. Wu,  W. Zhang

 Please cite Q-Chem as follows:
 Y. Shao et al., Mol. Phys. 113, 184-215 (2015)
 DOI: 10.1080/00268976.2014.952696

 Q-Chem 4.3.0 for Intel X86 Linux

 Parts of Q-Chem use Armadillo 5.200.1 (Boston Tea Smuggler).
 http://arma.sourceforge.net/

 Q-Chem begins on Wed Jun  7 11:31:28 2017  

Host: 
0

     Scratch files written to /tmp/irc1030.qcin//
 Oct1215 13750_ 19228  19214 4150   
 Parallel job on  1  processors
Processing $rem in /programs/x86_64/lib/qchem-4.3.2/config/preferences.
 MEM_TOTAL  2000 

Checking the input file for inconsistencies... 	...done.

--------------------------------------------------------------
User input:
--------------------------------------------------------------
$comment
TS Frame 1050 converged, trying to find the RPATH now
$end

$molecule
-2 1
C
O  1 1.265295
C  1 1.502167 2 121.843495
O  3 1.253198 1 124.414563 2 1.738499 0
C  3 1.535547 1 118.191160 2 -172.686472 0
H  5 1.092649 3 113.497750 1 -15.358334 0
H  5 1.099335 3 108.074457 1 104.411701 0
H  5 1.100482 3 108.783858 1 -138.196818 0
C  1 1.580718 2 117.114856 3 -157.458254 0
O  9 1.262444 1 119.564767 2 -76.575691 0
O  9 1.270910 1 113.410451 2 99.857031 0
C  1 2.087053 2 107.693036 3 84.003550 0
H  12 1.092391 1 91.109593 2 79.981725 0
H  12 1.092532 1 98.395616 2 -34.452839 0
H  12 1.100488 1 126.595460 2 -161.216149 0
$end

$rem
jobtype freq
basis 6-31+G(d)
exchange b3lyp
$end


--------------------------------------------------------------
 ----------------------------------------------------------------
             Standard Nuclear Orientation (Angstroms)
    I     Atom           X                Y                Z
 ----------------------------------------------------------------
    1      C       0.0819789904    -0.4882173594    -0.4250650683
    2      O       0.1322467979    -1.4543016630    -1.2406174597
    3      C      -1.1856899729     0.2811002458    -0.1849161196
    4      O      -2.2843707787     0.0238832322    -0.7301180291
    5      C      -1.1148750040     1.5411948631     0.6897560388
    6      H      -0.1940733509     1.6152802869     1.2732948146
    7      H      -1.1702630104     2.4183290531     0.0293734045
    8      H      -1.9878441626     1.5570868074     1.3596313456
    9      C       1.4443152234     0.2359983700    -0.0812323166
   10      O       2.2601063307    -0.3144400599     0.7095061088
   11      O       1.6156565418     1.3200649701    -0.7220552150
   12      C      -0.6287127877    -1.2285860107     1.3922300870
   13      H       0.3600565545    -1.6185957215     1.6443128319
   14      H      -1.3161326702    -1.9816340997     0.9998034671
   15      H      -1.0629531887    -0.6410588134     2.2152251688
 ----------------------------------------------------------------
 Molecular Point Group                 C1    NOp =  1
 Largest Abelian Subgroup              C1    NOp =  1
 Nuclear Repulsion Energy =   448.1388756942 hartrees
 There are       35 alpha and       35 beta electrons
 Requested basis set is 6-31+G(d)
 There are 57 shells and 183 basis functions

 Total QAlloc Memory Limit   2000 MB
 Mega-Array Size        61 MB
 MEM_STATIC part        62 MB

                       Distance Matrix (Angstroms)
             C (  1)   O (  2)   C (  3)   O (  4)   C (  5)   H (  6)
   O (  2)  1.265295
   C (  3)  1.502167  2.421380
   O (  4)  2.440270  2.878486  1.253198
   C (  5)  2.606492  3.775534  1.535547  2.384533
   H (  6)  2.717597  3.981027  2.211271  3.303869  1.092649
   H (  7)  3.197286  4.278630  2.148000  2.747987  1.099335  1.773464
   H (  8)  3.413587  4.508275  2.158059  2.608772  1.100482  1.796790
   C (  9)  1.580718  2.433683  2.632435  3.790665  2.974461  2.534064
   O ( 10)  2.462050  3.103233  3.609456  4.779043  3.851528  3.172487
   O ( 11)  2.389614  3.188498  3.035706  4.109789  3.081868  2.709925
   C ( 12)  2.087053  2.749890  2.253168  2.968879  2.898536  2.879346
   H ( 13)  2.374322  2.898571  3.056838  3.915183  3.615367  3.301919
   H ( 14)  2.493042  2.719443  2.557448  2.819967  3.542169  3.777778
   H ( 15)  2.881903  3.746027  2.574125  3.257154  2.663078  2.594851
             H (  7)   H (  8)   C (  9)   O ( 10)   O ( 11)   C ( 12)
   H (  8)  1.783189
   C (  9)  3.407465  3.949820
   O ( 10)  4.438248  4.687255  1.262444
   O ( 11)  3.087422  4.168311  1.270910  2.266338
   C ( 12)  3.930731  3.099722  2.934884  3.105970  4.000377
   H ( 13)  4.609411  3.959626  2.755475  2.486941  3.976425  1.092391
   H ( 14)  4.508069  3.619837  3.702243  3.956424  4.739346  1.092532
   H ( 15)  3.761558  2.533635  3.511316  3.662867  4.432671  1.100488
             H ( 13)   H ( 14)
   H ( 14)  1.832157
   H ( 15)  1.818372  1.827154
 
 A cutoff of  1.0D-11 yielded   1549 shell pairs
 There are     16660 function pairs
 
 -------------------------------------------------------
 OpenMP Integral Computing Module                       
 Release: version 1.0, May 2013, Q-Chem Inc. Pittsburgh 
 -------------------------------------------------------
 Integral Job Info:
 Integral job number is                      11
 Integral operator is                         1
 short-range coefficients                     0
 long-range coefficients              100000000
 Omega coefficients                           0
 if combine SR and LR in K                    0
 Integral screening is                        0
 Integral computing path is                   2
 max size of driver memory is            800000
 size of driver memory is                593474
 size of scratch memory is              2260544
 max col of scratch BK array               1296
 max len of scratch array in speh3          155
 max len of scratch index in speh4           18
 max int batch size is                      520
 min int batch size is                       52
 fixed nKL is                                52
 max L of basis functions is                  2
 order of int derivative is                   0
 number of shells is                         57
 number of basis is                         183
 number of cartesian basis is               183
 number of contracted shell pairs          1549
 number of primitive shell pairs           5350
 maxK2 (contraction) of shell pair           36
 max number of K2 of shell pair               1
 max number of CS2 of shell pair            195
 max number of PS2 of shell pair           1170
 mem total for path MDJ                   46792
 -------------------------------------------------------
 Smallest overlap matrix eigenvalue = 1.92E-05
 Guess from superposition of atomic densities
 Warning:  Energy on first SCF cycle will be non-variational
 A restricted hybrid HF-DFT SCF calculation will be
 performed using Pulay DIIS extrapolation
 Exchange:     0.2000 Hartree-Fock + 0.0800 Slater + 0.7200 B88
 Correlation:  0.1900 VWN1RPA + 0.8100 LYP
 Using SG-1 standard quadrature grid
 SCF converges when DIIS error is below 1.0E-08
 CPU 0.00 s  wall 0.00 s
 Inaccurate integrated density:
   Number of electrons =    70
   Numerical integral  =    68.000593833984
   Relative error      =    -2.8562945229 %
 CPU 4.90 s  wall 4.90 s
 ---------------------------------------
  Cycle       Energy         DIIS Error
 ---------------------------------------
    1    -496.0846286119      4.81E-02
 CPU 0.00 s  wall 0.00 s
 CPU 5.49 s  wall 5.49 s
    2    -494.5814359589      1.04E-02
 CPU 0.00 s  wall 0.00 s
 CPU 5.50 s  wall 5.50 s
    3    -491.6708219520      2.54E-02
 CPU 0.00 s  wall 0.00 s
 CPU 5.48 s  wall 5.48 s
    4    -494.7258481416      7.89E-03
 CPU 0.00 s  wall 0.00 s
 CPU 5.45 s  wall 5.45 s
    5    -494.9771830489      1.17E-03
 CPU 0.00 s  wall 0.00 s
 CPU 5.42 s  wall 5.42 s
    6    -494.9828043677      8.96E-04
 CPU 0.00 s  wall 0.00 s
 CPU 5.39 s  wall 5.39 s
    7    -494.9857819198      3.81E-04
 CPU 0.00 s  wall 0.00 s
 CPU 5.34 s  wall 5.34 s
    8    -494.9862505161      1.97E-04
 CPU 0.00 s  wall 0.00 s
 CPU 5.29 s  wall 5.29 s
    9    -494.9863865852      4.19E-05
 CPU 0.00 s  wall 0.00 s
 CPU 5.22 s  wall 5.22 s
   10    -494.9863913234      2.12E-05
 CPU 0.00 s  wall 0.00 s
 CPU 5.18 s  wall 5.18 s
   11    -494.9863929238      6.31E-06
 CPU 0.00 s  wall 0.00 s
 CPU 5.10 s  wall 5.10 s
   12    -494.9863930350      3.29E-06
 CPU 0.00 s  wall 0.00 s
 CPU 5.02 s  wall 5.02 s
   13    -494.9863930704      7.36E-07
 CPU 0.00 s  wall 0.00 s
 CPU 4.92 s  wall 4.93 s
   14    -494.9863930719      2.58E-07
 CPU 0.00 s  wall 0.00 s
 CPU 4.80 s  wall 4.80 s
   15    -494.9863930724      5.20E-08
 CPU 0.00 s  wall 0.00 s
 CPU 4.63 s  wall 4.63 s
   16    -494.9863930707      1.98E-08
 CPU 0.00 s  wall 0.00 s
 CPU 4.37 s  wall 4.37 s
   17    -494.9863930712      4.39E-09 Convergence criterion met
 ---------------------------------------
 SCF time:  CPU 204.88 s  wall 204.41 s
 SCF   energy in the final basis set = -494.9863930712
 Total energy in the final basis set = -494.9863930712
 
 --------------------------------------------------------------
 
                    Orbital Energies (a.u.)
 --------------------------------------------------------------
 
 Alpha MOs
 -- Occupied --
-18.822 -18.789 -18.789 -18.787  -9.967  -9.963  -9.944  -9.911
 -9.881  -0.717  -0.707  -0.664  -0.623  -0.461  -0.387  -0.336
 -0.243  -0.180  -0.157  -0.144  -0.136  -0.114  -0.108  -0.098
 -0.094  -0.084  -0.067  -0.057  -0.009   0.031   0.044   0.058
  0.075   0.103   0.110
 -- Virtual --
  0.225   0.243   0.266   0.277   0.279   0.299   0.302   0.308
  0.310   0.326   0.331   0.340   0.341   0.350   0.353   0.364
  0.373   0.384   0.391   0.399   0.407   0.433   0.465   0.484
  0.493   0.502   0.517   0.526   0.531   0.548   0.552   0.556
  0.564   0.571   0.579   0.591   0.595   0.598   0.611   0.620
  0.627   0.631   0.643   0.654   0.665   0.688   0.692   0.733
  0.742   0.791   0.840   0.845   0.944   0.966   0.995   1.012
  1.025   1.063   1.092   1.102   1.117   1.134   1.159   1.175
  1.211   1.224   1.253   1.286   1.296   1.315   1.336   1.371
  1.418   1.444   1.476   1.482   1.525   1.563   1.598   1.606
  1.613   1.631   1.639   1.658   1.668   1.680   1.685   1.718
  1.741   1.754   1.776   1.817   1.877   1.898   1.905   1.939
  1.976   1.997   2.034   2.062   2.092   2.096   2.142   2.163
  2.172   2.214   2.239   2.249   2.265   2.289   2.311   2.340
  2.366   2.383   2.419   2.438   2.470   2.534   2.564   2.583
  2.598   2.616   2.653   2.698   2.708   2.768   2.832   2.909
  2.969   2.997   3.046   3.070   3.200   3.272   3.407   3.417
  3.433   3.510   3.594   4.482   4.529   4.594   4.681   4.707
  4.775   4.847   4.938   5.116
 --------------------------------------------------------------
 
          Ground-State Mulliken Net Atomic Charges

     Atom                 Charge (a.u.)
  ----------------------------------------
      1 C                     0.260959
      2 O                    -0.583394
      3 C                     0.313150
      4 O                    -0.558795
      5 C                    -0.767552
      6 H                     0.226261
      7 H                     0.188363
      8 H                     0.170331
      9 C                     0.319822
     10 O                    -0.612415
     11 O                    -0.604944
     12 C                    -0.933770
     13 H                 s
 CPU 0.00 s  wall 0.00 s
 CPU 171.85 s  wall 171.85 s
 CPU 0.00 s  wall 0.00 s
 CPU 212.87 s  wall 212.87 s
   1         3          45      0.359836    0.076472
 CPU 0.00 s  wall 0.00 s
 CPU 214.32 s  wall 214.32 s
   2         3          45      0.050489    0.012376
 CPU 0.00 s  wall 0.00 s
 CPU 214.73 s  wall 214.73 s
   3         3          45      0.004404    0.001176
 CPU 0.00 s  wall 0.00 s
 CPU 214.75 s  wall 214.75 s
   4        14          34      0.000319    0.000093
 CPU 0.00 s  wall 0.00 s
 CPU 162.39 s  wall 162.39 s
   5        45           3      0.000013    0.000006
 CPU 0.00 s  wall 0.00 s
 CPU 17.68 s  wall 17.68 s
   6        48           0      0.000000    0.000000    Roots Converged
 CPU 0.00 s  wall 0.00 s
 CPU 219.15 s  wall 219.16 s
 Calculating analytic Hessian of the SCF energy
 Polarizability Matrix (a.u.)
            1           2           3
    1-117.9647202   0.5316949   7.3843475
    2   0.5316949-128.2918556  22.8178936
    3   7.3843475  22.8178936-137.2828418
 CPU 0.00 s  wall 0.00 s
 CPU 236.35 s  wall 236.34 s
 
 Direct stationary perturbation theory relativistic correction:
 
 rels  =       0.158776355687
 relv  =      -0.762794384901
 rel2e =       0.332089215852
 E_rel =      -0.271928813362
 
 Hessian of the SCF Energy
            1           2           3           4           5           6
    1   0.4423914  -0.0379560   0.0585349  -0.0907878   0.0011668  -0.0075584
    2  -0.0379560   0.5602987   0.2446889  -0.0005842  -0.3450369  -0.2259210
    3   0.0585349   0.2446889   0.2859011  -0.0039465  -0.1985650  -0.2210789
    4  -0.0907878  -0.0005842  -0.0039465   0.0786201  -0.0168267  -0.0157189
    5   0.0011668  -0.3450369  -0.1985650  -0.0168267   0.3720242   0.2729131
    6  -0.0075584  -0.2259210  -0.2210789  -0.0157189   0.2729131   0.2701222
    7  -0.1703689   0.0389256   0.0326567  -0.0003453   0.0101649   0.0031699
    8   0.0428673  -0.0871899  -0.0512144   0.0296000  -0.0266774  -0.0150150
    9   0.0040353  -0.0447852  -0.0097646   0.0222501  -0.0387600  -0.0274218
   10  -0.0468698  -0.0042483  -0.0424285   0.0087365   0.0012190   0.0088875
   11   0.0187310   0.0100565  -0.0012744   0.0009709   0.0050107   0.0059425
   12  -0.0078894   0.0047804  -0.0098806   0.0033930   0.0075534   0.0102589
   13   0.0084855   0.0160446   0.0159218  -0.0056687   0.0035944   0.0002564
   14   0.0014263  -0.0119540  -0.0103178   0.0022491   0.0016752   0.0000284
   15  -0.0018559  -0.0054397  -0.0074084   0.0002491  -0.0010667   0.0036323
   16  -0.0001463   0.0006314  -0.0000294   0.0004030  -0.0003314   0.0000012
   17   0.0002927  -0.0003685   0.0010171  -0.0000997   0.0007675   0.0004158
   18  -0.0010791  -0.0002444   0.0009401   0.0006707   0.0002468   0.0000608
   19   0.0004817   0.0004311  -0.0008895  -0.0001825   0.0001626   0.0006451
   20  -0.0013898  -0.0020110   0.0024627   0.0010538  -0.0007589  -0.0019989
   21   0.0007226  -0.0005074  -0.0005037   0.0001534   0.0003712  -0.0001785
   22   0.0011910  -0.0010579   0.0014733  -0.0001203   0.0010070   0.0002319
   23  -0.0028948  -0.0014822  -0.0040650   0.0013659  -0.0014898   0.0001792
   24  -0.0039984   0.0001328  -0.0017209   0.0012538  -0.0017056  -0.0006697
   25  -0.1279216  -0.0123244  -0.0003881   0.0154799   0.0021620   0.0001924
   26  -0.0043105  -0.0673742  -0.0193352  -0.0174498  -0.0207787  -0.0171715
   27   0.0053091  -0.0072498  -0.0613193  -0.0217063  -0.0270584  -0.0149313
   28  -0.0182731   0.0207416  -0.0217830  -0.0030916  -0.0105366  -0.0044648
   29  -0.0094614   0.0083348   0.0021671   0.0007959   0.0052248   0.0016552
   30  -0.0192958   0.0118390  -0.0018463   0.0004057   0.0001704   0.0032397
   31   0.0054888  -0.0263875   0.0096252  -0.0044961  -0.0045763  -0.0054630
   32  -0.0096389  -0.0218332   0.0199746  -0.0046630  -0.0001003  -0.0049535
   33  -0.0061948   0.0091056   0.0065769   0.0045974   0.0042657   0.0069379
   34  -0.0022284   0.0092707  -0.0460246  -0.0001036   0.0108812   0.0185570
   35  -0.0026636  -0.0289104   0.0156852   0.0029076   0.0023813  -0.0178150
   36  -0.0169520  -0.0023953   0.0262098   0.0067837  -0.0146551  -0.0279555
   37   0.0012248  -0.0010678   0.0047451  -0.0000917  -0.0018558  -0.0014496
   38   0.0043105  -0.0075126   0.0098711  -0.0010704   0.0003732  -0.0024855
   39  -0.0054164   0.0119603  -0.0136739   0.0012155  -0.0008907   0.0036192
   40  -0.0019271  -0.0042412  -0.0038535   0.0010055   0.0032756   0.0005282
   41  -0.0023858  -0.0078653  -0.0022708   0.0020373   0.0033925  -0.0012659
   42   0.0051019   0.0098531  -0.0003786  -0.0018501  -0.0016167   0.0027933
   43  -0.0007401   0.0018224  -0.0036140   0.0006427   0.0004933   0.0021852
   44   0.0019061   0.0028481  -0.0088241  -0.0002867   0.0039925   0.0054920
   45  -0.0034638  -0.0058174   0.0079474   0.0022494  -0.0012024  -0.0084285
            7           8           9          10          11          12
    1  -0.1703689   0.0428673   0.0040353  -0.0468698   0.0187310  -0.0078894
    2   0.0389256  -0.0871899  -0.0447852  -0.0042483   0.0100565   0.0047804
    3   0.0326567  -0.0512144  -0.0097646  -0.0424285  -0.0012744  -0.0098806
    4  -0.0003453   0.0296000   0.0222501   0.0087365   0.0009709   0.0033930
    5   0.0101649  -0.0266774  -0.0387600   0.0012190   0.0050107   0.0075534
    6   0.0031699  -0.0150150  -0.0274218   0.0088875   0.0059425   0.0102589
    7   0.7234094   0.0378900   0.1145709  -0.4472383  -0.0891808  -0.1745387
    8   0.0378900   0.3762506   0.1801366  -0.0969592  -0.1108103  -0.0681825
    9   0.1145709   0.1801366   0.3213324  -0.1599312  -0.0533116  -0.1540546
   10  -0.4472383  -0.0969592  -0.1599312   0.5068685   0.1013320   0.2272638
   11  -0.0891808  -0.1108103  -0.0533116   0.1013320   0.0997407   0.0787288
   12  -0.1745387  -0.0681825  -0.1540546   0.2272638   0.0787288   0.1652394
   13  -0.0803844   0.0144840   0.0021997  -0.0121419  -0.0355446  -0.0313689
   14   0.0095627  -0.1299507  -0.0387021  -0.0176899  -0.0070410  -0.0202976
   15   0.0139507  -0.0468405  -0.0928567  -0.0219536  -0.0258423  -0.0152292
   16  -0.0028287   0.0000690  -0.0001188   0.0020740  -0.0008389  -0.0009687
   17  -0.0247414   0.0058125  -0.0083052  -0.0018416  -0.0065851  -0.0068885
   18  -0.0159552   0.0072816  -0.0075433  -0.0015324  -0.0064321  -0.0022066
   19  -0.0013475   0.0000226  -0.0002533   0.0000501  -0.0002590  -0.0008352
   20   0.0021158  -0.0211671   0.0169790   0.0002761   0.0030930  -0.0019554
   21  -0.0016068  -0.0148967   0.0100044   0.0014694   0.0008224   0.0000698
   22  -0.0042509   0.0009365  -0.0009484   0.0023913  -0.0010519  -0.0010009
   23   0.0248630  -0.0054809  -0.0182060   0.0003332   0.0021187   0.0038934
   24   0.0186243  -0.0017394  -0.0109809  -0.0021230   0.0012044   0.0027096
   25  -0.0161470  -0.0012789  -0.0077089   0.0050890  -0.0014032   0.0036685
   26   0.0086475   0.0195015   0.0073005   0.0124061  -0.0055790   0.0015730
   27   0.0011565   0.0041091   0.0029391   0.0009797  -0.0023769   0.0017915
   28  -0.0040585  -0.0060734  -0.0037323  -0.0051040   0.0019707  -0.0000051
   29   0.0010505  -0.0033801  -0.0005926  -0.0025076   0.0009017  -0.0004089
   30  -0.0040072  -0.0036389  -0.0040163  -0.0013565   0.0018651   0.0007175
   31   0.0020950  -0.0005737   0.0021207  -0.0014658   0.0004033  -0.0009247
   32   0.0020444  -0.0102038   0.0023440  -0.0062526   0.0035790  -0.0024477
   33  -0.0016482  -0.0002387  -0.0024990   0.0022943   0.0001546   0.0016973
   34   0.0063352  -0.0245389   0.0318736  -0.0170178   0.0037683  -0.0186951
   35  -0.0089447  -0.0005206  -0.0053966   0.0078762   0.0010787   0.0034507
   36   0.0007234   0.0105413  -0.0197235  -0.0048431   0.0008861  -0.0001688
   37  -0.0022416   0.0015616  -0.0030476   0.0024537   0.0006656   0.0011795
   38  -0.0045486   0.0039289  -0.0069074   0.0047742   0.0006787   0.0035795
   39   0.0038948  -0.0067341   0.0055660  -0.0053526   0.0011966  -0.0045836
   40  -0.0017979   0.0009273  -0.0011378   0.0013933   0.0008560   0.0003065
   41  -0.0079914  -0.0058363  -0.0008087   0.0026853   0.0034536  -0.0012316
   42   0.0046814   0.0055949  -0.0030655   0.0006112  -0.0017998   0.0020655
   43  -0.0008306   0.0010658  -0.0001723   0.0007812  -0.0004194   0.0004154
   44   0.0001424  -0.0042764   0.0090154  -0.0014028   0.0003040  -0.0021470
   45   0.0043275   0.0008368  -0.0079156  -0.0019850   0.0002367   0.0015739
           13          14          15          16          17          18
    1   0.0084855   0.0014263  -0.0018559  -0.0001463   0.0002927  -0.0010791
    2   0.0160446  -0.0119540  -0.0054397   0.0006314  -0.0003685  -0.0002444
    3   0.0159218  -0.0103178  -0.0074084  -0.0000294   0.0010171   0.0009401
    4  -0.0056687   0.0022491   0.0002491   0.0004030  -0.0000997   0.0006707
    5   0.0035944   0.0016752  -0.0010667  -0.0003314   0.0007675   0.0002468
    6   0.0002564   0.0000284   0.0036323   0.0000012   0.0004158   0.0000608
    7  -0.0803844   0.0095627   0.0139507  -0.0028287  -0.0247414  -0.0159552
    8   0.0144840  -0.1299507  -0.0468405   0.0000690   0.0058125   0.0072816
    9   0.0021997  -0.0387021  -0.0928567  -0.0001188  -0.0083052  -0.0075433
   10  -0.0121419  -0.0176899  -0.0219536   0.0020740  -0.0018416  -0.0015324
   11  -0.0355446  -0.0070410  -0.0258423  -0.0008389  -0.0065851  -0.0064321
   12  -0.0313689  -0.0202976  -0.0152292  -0.0009687  -0.0068885  -0.0022066
   13   0.5856148   0.0037393   0.0230784  -0.2419053  -0.0110276  -0.1192290
   14   0.0037393   0.4515972  -0.0448795  -0.0139813  -0.0479779  -0.0102718
   15   0.0230784  -0.0448795   0.5148844  -0.1235711  -0.0092330  -0.1255876
   16  -0.2419053  -0.0139813  -0.1235711   0.2631795   0.0130125   0.1333420
   17  -0.0110276  -0.0479779  -0.0092330   0.0130125   0.0501749   0.0098432
   18  -0.1192290  -0.0102718  -0.1255876   0.1333420   0.0098432   0.1315364
   19  -0.0467958   0.0094129  -0.0079462  -0.0000645   0.0223338  -0.0160744
   20   0.0095924  -0.2048963   0.1249349   0.0001109   0.0019114  -0.0015605
   21  -0.0089815   0.1222420  -0.1384852   0.0002920   0.0133969  -0.0107248
   22  -0.2054317   0.0001752   0.1187277  -0.0185393   0.0004081   0.0175213
   23  -0.0003728  -0.0416001   0.0011558  -0.0010128  -0.0015922   0.0012942
   24   0.1177494   0.0020871  -0.1383710  -0.0129431   0.0003850   0.0125745
   25  -0.0012594   0.0021148   0.0011694  -0.0014961   0.0013889   0.0012781
   26   0.0008697  -0.0006298   0.0002319   0.0012784   0.0003917  -0.0033740
   27   0.0022888  -0.0003946  -0.0003547   0.0017488  -0.0020188   0.0006066
   28  -0.0002599   0.0001350  -0.0001747   0.0001540   0.0000832  -0.0001236
   29  -0.0002580  -0.0000872   0.0000365  -0.0001359  -0.0001430   0.0006031
   30  -0.0009899   0.0002510  -0.0001406   0.0001245   0.0007311  -0.0006800
   31  -0.0015255   0.0000594   0.0011873  -0.0012808   0.0000662   0.0000348
   32   0.0008504  -0.0001619  -0.0010304   0.0007353  -0.0010772   0.0021817
   33  -0.0002089   0.0004182  -0.0017766   0.0009695  -0.0000342   0.0003936
   34   0.0007821   0.0020447  -0.0024149   0.0011357   0.0004869   0.0009648
   35  -0.0019881  -0.0068703   0.0040797   0.0001164  -0.0009745   0.0000734
   36  -0.0013881   0.0005611   0.0027192   0.0001188  -0.0001997   0.0004292
   37  -0.0001219  -0.0000861   0.0002023  -0.0000323  -0.0000382  -0.0000541
   38   0.0002529  -0.0007135   0.0008453  -0.0001136  -0.0003895  -0.0002276
   39   0.0006492   0.0001005  -0.0004197   0.0002051   0.0003276   0.0002902
   40   0.0000050   0.0002219   0.0001121  -0.0001690   0.0001423   0.0000186
   41  -0.0003254  -0.0005179   0.0010470   0.0003766   0.0002203   0.0002542
   42   0.0000778  -0.0000389  -0.0004506   0.0001438   0.0001518  -0.0001549
   43   0.0006071   0.0006160  -0.0007608  -0.0004838  -0.0004663   0.0002173
   44   0.0000890  -0.0008717   0.0020010   0.0000835  -0.0001706   0.0003323
   45  -0.0000554  -0.0007858  -0.0001558   0.0006851   0.0004106   0.0000659
           19          20          21          22          23          24
    1   0.0004817  -0.0013898   0.0007226   0.0011910  -0.0028948  -0.0039984
    2   0.0004311  -0.0020110  -0.0005074  -0.0010579  -0.0014822   0.0001328
    3  -0.0008895   0.0024627  -0.0005037   0.0014733  -0.0040650  -0.0017209
    4  -0.0001825   0.0010538   0.0001534  -0.0001203   0.0013659   0.0012538
    5   0.0001626  -0.0007589   0.0003712   0.0010070  -0.0014898  -0.0017056
    6   0.0006451  -0.0019989  -0.0001785   0.0002319   0.0001792  -0.0006697
    7  -0.0013475   0.0021158  -0.0016068  -0.0042509   0.0248630   0.0186243
    8   0.0000226  -0.0211671  -0.0148967   0.0009365  -0.0054809  -0.0017394
    9  -0.0002533   0.0169790   0.0100044  -0.0009484  -0.0182060  -0.0109809
   10   0.0000501   0.0002761   0.0014694   0.0023913   0.0003332  -0.0021230
   11  -0.0002590   0.0030930   0.0008224  -0.0010519   0.0021187   0.0012044
   12  -0.0008352  -0.0019554   0.0000698  -0.0010009   0.0038934   0.0027096
   13  -0.0467958   0.0095924  -0.0089815  -0.2054317  -0.0003728   0.1177494
   14   0.0094129  -0.2048963   0.1222420   0.0001752  -0.0416001   0.0020871
   15  -0.0079462   0.1249349  -0.1384852   0.1187277   0.0011558  -0.1383710
   16  -0.0000645   0.0001109   0.0002920  -0.0185393  -0.0010128  -0.0129431
   17   0.0223338   0.0019114   0.0133969   0.0004081  -0.0015922   0.0003850
   18  -0.0160744  -0.0015605  -0.0107248   0.0175213   0.0012942   0.0125745
   19   0.0452425  -0.0112050   0.0089945   0.0015970  -0.0213435   0.0159520
   20  -0.0112050   0.2244438  -0.1355890  -0.0007494   0.0007267  -0.0007081
   21   0.0089945  -0.1355890   0.1521249  -0.0014605   0.0147516  -0.0127093
   22   0.0015970  -0.0007494  -0.0014605   0.2233616   0.0000661  -0.1339539
   23  -0.0213435   0.0007267   0.0147516   0.0000661   0.0479877   0.0004145
   24   0.0159520  -0.0007081  -0.0127093  -0.1339539   0.0004145   0.1472428
   25   0.0002722  -0.0008915   0.0003036   0.0003984  -0.0007276  -0.0003555
   26   0.0015908  -0.0018465   0.0004887  -0.0014549  -0.0008719   0.0002204
   27  -0.0015202   0.0008848  -0.0006387   0.0007750   0.0007193  -0.0001847
   28   0.0001489   0.0001089  -0.0000090  -0.0003805   0.0000412   0.0003173
   29  -0.0004448   0.0006729  -0.0001233   0.0003391   0.0003208  -0.0000414
   30   0.0008041  -0.0006160   0.0003934  -0.0004634  -0.0002666   0.0003619
   31   0.0002940  -0.0002285  -0.0000097  -0.0007641  -0.0001912   0.0003573
   32  -0.0016313   0.0019888  -0.0009395   0.0013517   0.0010772  -0.0001330
   33   0.0003490  -0.0006163   0.0000056   0.0005515  -0.0001470   0.0003592
   34   0.0003694   0.0012953   0.0005828   0.0001238  -0.0000231  -0.0007306
   35   0.0007948  -0.0013998  -0.0001733   0.0000761   0.0002873   0.0000595
   36   0.0011023  -0.0022637  -0.0004565   0.0002466  -0.0004944   0.0002242
   37   0.0000207  -0.0001889  -0.0001384   0.0000849  -0.0001168   0.0000035
   38  -0.0000756  -0.0006861   0.0000491  -0.0002792  -0.0000770   0.0001867
   39  -0.0000988   0.0003143   0.0002071  -0.0002427   0.0002271   0.0001710
   40  -0.0000070   0.0000479  -0.0000708   0.0001611  -0.0000466  -0.0000405
   41   0.0004210  -0.0006730   0.0002425   0.0000114  -0.0000633  -0.0001275
   42  -0.0002513   0.0003231   0.0001803  -0.0002327   0.0000675   0.0000826
   43  -0.0000793   0.0000521  -0.0002417   0.0001777   0.0000598  -0.0001128
   44  -0.0002106   0.0006021  -0.0001351   0.0002222   0.0001390  -0.0002355
   45   0.0000219  -0.0005909   0.0007112  -0.0012250   0.0004763   0.0009108
           25          26          27          28          29          30
    1  -0.1279216  -0.0043105   0.0053091  -0.0182731  -0.0094614  -0.0192958
    2  -0.0123244  -0.0673742  -0.0072498   0.0207416   0.0083348   0.0118390
    3  -0.0003881  -0.0193352  -0.0613193  -0.0217830   0.0021671  -0.0018463
    4   0.0154799  -0.0174498  -0.0217063  -0.0030916   0.0007959   0.0004057
    5   0.0021620  -0.0207787  -0.0270584  -0.0105366   0.0052248   0.0001704
    6   0.0001924  -0.0171715  -0.0149313  -0.0044648   0.0016552   0.0032397
    7  -0.0161470   0.0086475   0.0011565  -0.0040585   0.0010505  -0.0040072
    8  -0.0012789   0.0195015   0.0041091  -0.0060734  -0.0033801  -0.0036389
    9  -0.0077089   0.0073005   0.0029391  -0.0037323  -0.0005926  -0.0040163
   10   0.0050890   0.0124061   0.0009797  -0.0051040  -0.0025076  -0.0013565
   11  -0.0014032  -0.0055790  -0.0023769   0.0019707   0.0009017   0.0018651
   12   0.0036685   0.0015730   0.0017915  -0.0000051  -0.0004089   0.0007175
   13  -0.0012594   0.0008697   0.0022888  -0.0002599  -0.0002580  -0.0009899
   14   0.0021148  -0.0006298  -0.0003946   0.0001350  -0.0000872   0.0002510
   15   0.0011694   0.0002319  -0.0003547  -0.0001747   0.0000365  -0.0001406
   16  -0.0014961   0.0012784   0.0017488   0.0001540  -0.0001359   0.0001245
   17   0.0013889   0.0003917  -0.0020188   0.0000832  -0.0001430   0.0007311
   18   0.0012781  -0.0033740   0.0006066  -0.0001236   0.0006031  -0.0006800
   19   0.0002722   0.0015908  -0.0015202   0.0001489  -0.0004448   0.0008041
   20  -0.0008915  -0.0018465   0.0008848   0.0001089   0.0006729  -0.0006160
   21   0.0003036   0.0004887  -0.0006387  -0.0000090  -0.0001233   0.0003934
   22   0.0003984  -0.0014549   0.0007750  -0.0003805   0.0003391  -0.0004634
   23  -0.0007276  -0.0008719   0.0007193   0.0000412   0.0003208  -0.0002666
   24  -0.0003555   0.0002204  -0.0001847   0.0003173  -0.0000414   0.0003619
   25   0.5214899  -0.0234842   0.1505928  -0.2847987   0.1091422  -0.1769473
   26  -0.0234842   0.6076994  -0.2457192   0.0951666  -0.1559215   0.1022592
   27   0.1505928  -0.2457192   0.4781750  -0.1753783   0.1101598  -0.2329213
   28  -0.2847987   0.0951666  -0.1753783   0.2929826  -0.1341981   0.2249393
   29   0.1091422  -0.1559215   0.1101598  -0.1341981   0.1839085  -0.1749541
   30  -0.1769473   0.1022592  -0.2329213   0.2249393  -0.1749541   0.2604761
   31  -0.1124635  -0.0682070   0.0269231   0.0267086   0.0382805  -0.0255414
   32  -0.0747039  -0.3694387   0.1626745   0.0342906  -0.0416893   0.0641565
   33   0.0318255   0.1661374  -0.1668840  -0.0210344   0.0638295  -0.0300821
   34   0.0020755  -0.0059516   0.0084509  -0.0019151  -0.0003963   0.0005345
   35  -0.0032478  -0.0012796   0.0010674  -0.0016765  -0.0004599   0.0018676
   36   0.0000461   0.0047952  -0.0014642   0.0004220  -0.0001259   0.0020711
   37  -0.0004818  -0.0008567   0.0006888  -0.0009511  -0.0002307   0.0005999
   38   0.0016975  -0.0026011   0.0029272  -0.0000545   0.0014061  -0.0028332
   39  -0.0008357   0.0018089  -0.0018445  -0.0003307  -0.0019601   0.0010309
   40  -0.0007151   0.0012424  -0.0005081  -0.0006210  -0.0010212   0.0014713
   41   0.0011191  -0.0003030   0.0010619  -0.0002734   0.0003914  -0.0003554
   42  -0.0010072   0.0005131  -0.0018561   0.0004927  -0.0002185   0.0005168
   43   0.0004785   0.0005133   0.0001992  -0.0005404  -0.0009544  -0.0002779
   44   0.0004370  -0.0009685   0.0012138   0.0002745   0.0005199  -0.0004756
   45  -0.0018336   0.0002718  -0.0011134   0.0008645  -0.0000264   0.0008792
           31          32          33          34          35          36
    1   0.0054888  -0.0096389  -0.0061948  -0.0022284  -0.0026636  -0.0169520
    2  -0.0263875  -0.0218332   0.0091056   0.0092707  -0.0289104  -0.0023953
    3   0.0096252   0.0199746   0.0065769  -0.0460246   0.0156852   0.0262098
    4  -0.0044961  -0.0046630   0.0045974  -0.0001036   0.0029076   0.0067837
    5  -0.0045763  -0.0001003   0.0042657   0.0108812   0.0023813  -0.0146551
    6  -0.0054630  -0.0049535   0.0069379   0.0185570  -0.0178150  -0.0279555
    7   0.0020950   0.0020444  -0.0016482   0.0063352  -0.0089447   0.0007234
    8  -0.0005737  -0.0102038  -0.0002387  -0.0245389  -0.0005206   0.0105413
    9   0.0021207   0.0023440  -0.0024990   0.0318736  -0.0053966  -0.0197235
   10  -0.0014658  -0.0062526   0.0022943  -0.0170178   0.0078762  -0.0048431
   11   0.0004033   0.0035790   0.0001546   0.0037683   0.0010787   0.0008861
   12  -0.0009247  -0.0024477   0.0016973  -0.0186951   0.0034507  -0.0001688
   13  -0.0015255   0.0008504  -0.0002089   0.0007821  -0.0019881  -0.0013881
   14   0.0000594  -0.0001619   0.0004182   0.0020447  -0.0068703   0.0005611
   15   0.0011873  -0.0010304  -0.0017766  -0.0024149   0.0040797   0.0027192
   16  -0.0012808   0.0007353   0.0009695   0.0011357   0.0001164   0.0001188
   17   0.0000662  -0.0010772  -0.0000342   0.0004869  -0.0009745  -0.0001997
   18   0.0000348   0.0021817   0.0003936   0.0009648   0.0000734   0.0004292
   19   0.0002940  -0.0016313   0.0003490   0.0003694   0.0007948   0.0011023
   20  -0.0002285   0.0019888  -0.0006163   0.0012953  -0.0013998  -0.0022637
   21  -0.0000097  -0.0009395   0.0000056   0.0005828  -0.0001733  -0.0004565
   22  -0.0007641   0.0013517   0.0005515   0.0001238   0.0000761   0.0002466
   23  -0.0001912   0.0010772  -0.0001470  -0.0000231   0.0002873  -0.0004944
   24   0.0003573  -0.0001330   0.0003592  -0.0007306   0.0000595   0.0002242
   25  -0.1124635  -0.0747039   0.0318255   0.0020755  -0.0032478   0.0000461
   26  -0.0682070  -0.3694387   0.1661374  -0.0059516  -0.0012796   0.0047952
   27   0.0269231   0.1626745  -0.1668840   0.0084509   0.0010674  -0.0014642
   28   0.0267086   0.0342906  -0.0210344  -0.0019151  -0.0016765   0.0004220
   29   0.0382805  -0.0416893   0.0638295  -0.0003963  -0.0004599  -0.0001259
   30  -0.0255414   0.0641565  -0.0300821   0.0005345   0.0018676   0.0020711
   31   0.0921037   0.0638688  -0.0121363  -0.0042920  -0.0010607   0.0021162
   32   0.0638688   0.4359983  -0.2415736  -0.0050250   0.0002461  -0.0001828
   33  -0.0121363  -0.2415736   0.1837972   0.0001391  -0.0000097  -0.0000041
   34  -0.0042920  -0.0050250   0.0001391   0.5407863  -0.0240241   0.0674168
   35  -0.0010607   0.0002461  -0.0000097  -0.0240241   0.3925628   0.1886516
   36   0.0021162  -0.0001828  -0.0000041   0.0674168   0.1886516   0.3116516
   37   0.0001837   0.0008724  -0.0002945  -0.2760182   0.0907278  -0.0592980
   38  -0.0002734   0.0021745  -0.0010394   0.1031708  -0.0755327   0.0081546
   39  -0.0001221  -0.0018437   0.0010111  -0.0727983   0.0116109  -0.0477668
   40  -0.0002190  -0.0012496   0.0006006  -0.1597669  -0.1175605  -0.0688583
   41  -0.0008753  -0.0005252   0.0000029  -0.1210551  -0.1697302  -0.0870724
   42   0.0007766   0.0005258   0.0003976  -0.0635290  -0.0792141  -0.0683745
   43  -0.0003670  -0.0008495   0.0001901  -0.0902661   0.0586672   0.0723637
   44  -0.0003046  -0.0000342  -0.0002549   0.0500960  -0.1108782  -0.1062005
   45   0.0010559   0.0012471   0.0000692   0.0756730  -0.1239374  -0.1773911
           37          38          39          40          41          42
    1   0.0012248   0.0043105  -0.0054164  -0.0019271  -0.0023858   0.0051019
    2  -0.0010678  -0.0075126   0.0119603  -0.0042412  -0.0078653   0.0098531
    3   0.0047451   0.0098711  -0.0136739  -0.0038535  -0.0022708  -0.0003786
    4  -0.0000917  -0.0010704   0.0012155   0.0010055   0.0020373  -0.0018501
    5  -0.0018558   0.0003732  -0.0008907   0.0032756   0.0033925  -0.0016167
    6  -0.0014496  -0.0024855   0.0036192   0.0005282  -0.0012659   0.0027933
    7  -0.0022416  -0.0045486   0.0038948  -0.0017979  -0.0079914   0.0046814
    8   0.0015616   0.0039289  -0.0067341   0.0009273  -0.0058363   0.0055949
    9  -0.0030476  -0.0069074   0.0055660  -0.0011378  -0.0008087  -0.0030655
   10   0.0024537   0.0047742  -0.0053526   0.0013933   0.0026853   0.0006112
   11   0.0006656   0.0006787   0.0011966   0.0008560   0.0034536  -0.0017998
   12   0.0011795   0.0035795  -0.0045836   0.0003065  -0.0012316   0.0020655
   13  -0.0001219   0.0002529   0.0006492   0.0000050  -0.0003254   0.0000778
   14  -0.0000861  -0.0007135   0.0001005   0.0002219  -0.0005179  -0.0000389
   15   0.0002023   0.0008453  -0.0004197   0.0001121   0.0010470  -0.0004506
   16  -0.0000323  -0.0001136   0.0002051  -0.0001690   0.0003766   0.0001438
   17  -0.0000382  -0.0003895   0.0003276   0.0001423   0.0002203   0.0001518
   18  -0.0000541  -0.0002276   0.0002902   0.0000186   0.0002542  -0.0001549
   19   0.0000207  -0.0000756  -0.0000988  -0.0000070   0.0004210  -0.0002513
   20  -0.0001889  -0.0006861   0.0003143   0.0000479  -0.0006730   0.0003231
   21  -0.0001384   0.0000491   0.0002071  -0.0000708   0.0002425   0.0001803
   22   0.0000849  -0.0002792  -0.0002427   0.0001611   0.0000114  -0.0002327
   23  -0.0001168  -0.0000770   0.0002271  -0.0000466  -0.0000633   0.0000675
   24   0.0000035   0.0001867   0.0001710  -0.0000405  -0.0001275   0.0000826
   25  -0.0004818   0.0016975  -0.0008357  -0.0007151   0.0011191  -0.0010072
   26  -0.0008567  -0.0026011   0.0018089   0.0012424  -0.0003030   0.0005131
   27   0.0006888   0.0029272  -0.0018445  -0.0005081   0.0010619  -0.0018561
   28  -0.0009511  -0.0000545  -0.0003307  -0.0006210  -0.0002734   0.0004927
   29  -0.0002307   0.0014061  -0.0019601  -0.0010212   0.0003914  -0.0002185
   30   0.0005999  -0.0028332   0.0010309   0.0014713  -0.0003554   0.0005168
   31   0.0001837  -0.0002734  -0.0001221  -0.0002190  -0.0008753   0.0007766
   32   0.0008724   0.0021745  -0.0018437  -0.0012496  -0.0005252   0.0005258
   33  -0.0002945  -0.0010394   0.0010111   0.0006006   0.0000029   0.0003976
   34  -0.2760182   0.1031708  -0.0727983  -0.1597669  -0.1210551  -0.0635290
   35   0.0907278  -0.0755327   0.0116109  -0.1175605  -0.1697302  -0.0792141
   36  -0.0592980   0.0081546  -0.0477668  -0.0688583  -0.0870724  -0.0683745
   37   0.2950537  -0.1006573   0.0634265  -0.0120997   0.0079541  -0.0032352
   38  -0.1006573   0.0754203  -0.0137406  -0.0210737   0.0089481  -0.0045783
   39   0.0634265  -0.0137406   0.0537036  -0.0073796   0.0065953  -0.0023239
   40  -0.0120997  -0.0210737  -0.0073796   0.1652350   0.1283105   0.0725992
   41   0.0079541   0.0089481   0.0065953   0.1283105   0.1790222   0.0855510
   42  -0.0032352  -0.0045783  -0.0023239   0.0725992   0.0855510   0.0780088
   43  -0.0069830   0.0139404   0.0231858   0.0095228  -0.0100089  -0.0143791
   44   0.0033169  -0.0054174  -0.0089724   0.0101688  -0.0099138  -0.0151141
   45  -0.0033283   0.0061986   0.0050133   0.0062120  -0.0016225  -0.0074407
           43          44          45
    1  -0.0007401   0.0019061  -0.0034638
    2   0.0018224   0.0028481  -0.0058174
    3  -0.0036140  -0.0088241   0.0079474
    4   0.0006427  -0.0002867   0.0022494
    5   0.0004933   0.0039925  -0.0012024
    6   0.0021852   0.0054920  -0.0084285
    7  -0.0008306   0.0001424   0.0043275
    8   0.0010658  -0.0042764   0.0008368
    9  -0.0001723   0.0090154  -0.0079156
   10   0.0007812  -0.0014028  -0.0019850
   11  -0.0004194   0.0003040   0.0002367
   12   0.0004154  -0.0021470   0.0015739
   13   0.0006071   0.0000890  -0.0000554
   14   0.0006160  -0.0008717  -0.0007858
   15  -0.0007608   0.0020010  -0.0001558
   16  -0.0004838   0.0000835   0.0006851
   17  -0.0004663  -0.0001706   0.0004106
   18   0.0002173   0.0003323   0.0000659
   19  -0.0000793  -0.0002106   0.0000219
   20   0.0000521   0.0006021  -0.0005909
   21  -0.0002417  -0.0001351   0.0007112
   22   0.0001777   0.0002222  -0.0012250
   23   0.0000598   0.0001390   0.0004763
   24  -0.0001128  -0.0002355   0.0009108
   25   0.0004785   0.0004370  -0.0018336
   26   0.0005133  -0.0009685   0.0002718
   27   0.0001992   0.0012138  -0.0011134
   28  -0.0005404   0.0002745   0.0008645
   29  -0.0009544   0.0005199  -0.0000264
   30  -0.0002779  -0.0004756   0.0008792
   31  -0.0003670  -0.0003046   0.0010559
   32  -0.0008495  -0.0000342   0.0012471
   33   0.0001901  -0.0002549   0.0000692
   34  -0.0902661   0.0500960   0.0756730
   35   0.0586672  -0.1108782  -0.1239374
   36   0.0723637  -0.1062005  -0.1773911
   37  -0.0069830   0.0033169  -0.0033283
   38   0.0139404  -0.0054174   0.0061986
   39   0.0231858  -0.0089724   0.0050133
   40   0.0095228   0.0101688   0.0062120
   41  -0.0100089  -0.0099138  -0.0016225
   42  -0.0143791  -0.0151141  -0.0074407
   43   0.0880804  -0.0645318  -0.0791981
   44  -0.0645318   0.1241252   0.1243048
   45  -0.0791981   0.1243048   0.1852742
 Gradient time:  CPU 2795.34 s  wall 2795.71 s
 **********************************************************************
 **                                                                  **
 **                       VIBRATIONAL ANALYSIS                       **
 **                       --------------------                       **
 **                                                                  **
 **        VIBRATIONAL FREQUENCIES (CM**-1) AND NORMAL MODES         **
 **     FORCE CONSTANTS (mDYN/ANGSTROM) AND REDUCED MASSES (AMU)     **
 **                  INFRARED INTENSITIES (KM/MOL)                   **
 **                                                                  **
 **********************************************************************
 

 Mode:                 1                      2                      3
 Frequency:      -268.19                  60.97                 130.99
 Force Cnst:      0.2304                 0.0205                 0.0373
 Red. Mass:       5.4376                 9.3508                 3.6865
 IR Active:          YES                    YES                    YES
 IR Intens:      123.411                  2.498                  0.116
 Raman Active:       YES                    YES                    YES
               X      Y      Z        X      Y      Z        X      Y      Z
 C         -0.105 -0.132  0.288    0.007  0.007  0.018    0.010 -0.054  0.058
 O         -0.053 -0.043  0.076   -0.003 -0.050  0.093    0.010 -0.101  0.120
 C         -0.035  0.166 -0.165   -0.012  0.008 -0.060    0.043  0.021 -0.008
 O         -0.012  0.091 -0.071    0.018 -0.080 -0.079    0.087  0.161 -0.155
 C         -0.053  0.062 -0.022   -0.110  0.076 -0.156    0.057 -0.068  0.121
 H         -0.042 -0.004 -0.036   -0.119  0.196 -0.161   -0.020 -0.231  0.264
 H         -0.042  0.117  0.057   -0.169  0.021 -0.223    0.249  0.006  0.206
 H         -0.053  0.006 -0.017   -0.122  0.060 -0.169   -0.034 -0.048  0.002
 C         -0.057 -0.020  0.071    0.026 -0.027  0.015   -0.012  0.014 -0.028
 O          0.021  0.012  0.021    0.191 -0.308 -0.357    0.097  0.080 -0.097
 O         -0.077 -0.041  0.019   -0.119  0.215  0.380   -0.158  0.023 -0.054
 C          0.354 -0.095 -0.201    0.007  0.165  0.141   -0.127 -0.083  0.056
 H          0.203 -0.385 -0.057   -0.005  0.110  0.105   -0.091  0.168  0.311
 H          0.111  0.034 -0.031   -0.067  0.177  0.245    0.187 -0.264 -0.144
 H          0.522  0.156 -0.285    0.098  0.268  0.114   -0.519 -0.206 -0.063
 TransDip  -0.300  0.093  0.168   -0.010  0.024 -0.043    0.007 -0.003 -0.008

 Mode:                 4                      5                      6
 Frequency:       145.17                 172.05                 229.20
 Force Cnst:      0.0164                 0.0370                 0.0876
 Red. Mass:       1.3217                 2.1218                 2.8314
 IR Active:          YES                    YES                    YES
 IR Intens:        1.922                  5.929                 10.751
 Raman Active:       YES                    YES                    YES
               X      Y      Z        X      Y      Z        X      Y      Z
 C          0.015  0.005 -0.011    0.011 -0.049 -0.027   -0.012 -0.016 -0.074
 O          0.004 -0.013  0.020    0.023 -0.050 -0.024   -0.064  0.040 -0.130
 C          0.009 -0.006 -0.004    0.038 -0.027  0.008    0.006 -0.026 -0.018
 O          0.035  0.029 -0.076   -0.007  0.002  0.079    0.038  0.041 -0.110
 C         -0.039 -0.054  0.069    0.168  0.034 -0.089    0.026 -0.054  0.009
 H          0.021  0.017 -0.035    0.070 -0.118  0.083   -0.117 -0.248  0.259
 H         -0.239 -0.016  0.135    0.519 -0.014 -0.179    0.391 -0.027  0.013
 H          0.043 -0.204  0.180    0.038  0.289 -0.266   -0.149  0.101 -0.226
 C          0.010  0.006 -0.015   -0.036  0.012  0.012   -0.043 -0.026 -0.004
 O          0.011  0.020 -0.008   -0.012  0.060  0.018   -0.088 -0.006  0.054
 O          0.002 -0.004 -0.034   -0.123  0.055  0.060   -0.045 -0.008  0.027
 C         -0.039  0.019  0.052   -0.058 -0.058 -0.041    0.168  0.029  0.232
 H         -0.118 -0.379 -0.259   -0.135 -0.370 -0.222    0.262  0.207  0.127
 H         -0.441  0.302  0.209   -0.346  0.173  0.022    0.194 -0.112  0.444
 H          0.446  0.135  0.224    0.261  0.014  0.077    0.219  0.117  0.193
 TransDip   0.022 -0.030 -0.024    0.067 -0.012 -0.039    0.047  0.016 -0.093

 Mode:                 7                      8                      9
 Frequency:       236.64                 273.13                 320.39
 Force Cnst:      0.0612                 0.1182                 0.3366
 Red. Mass:       1.8554                 2.6896                 5.5661
 IR Active:          YES                    YES                    YES
 IR Intens:       12.106                 24.016                 14.722
 Raman Active:       YES                    YES                    YES
               X      Y      Z        X      Y      Z        X      Y      Z
 C          0.003 -0.047 -0.072   -0.012  0.014 -0.034    0.030 -0.062  0.071
 O          0.002 -0.090 -0.023    0.048 -0.098  0.090   -0.048  0.123 -0.185
 C          0.034 -0.014 -0.037   -0.026 -0.034 -0.009    0.086  0.003  0.028
 O         -0.007  0.045  0.010   -0.056 -0.004  0.010    0.114 -0.104  0.037
 C          0.117 -0.045  0.009    0.003 -0.117  0.113   -0.042 -0.017  0.080
 H          0.342  0.140 -0.377   -0.169 -0.401  0.424   -0.115 -0.010  0.198
 H         -0.391 -0.022  0.081    0.438 -0.020  0.206    0.014  0.006  0.110
 H          0.401 -0.278  0.389   -0.207 -0.001 -0.164   -0.128 -0.083 -0.029
 C         -0.040 -0.009 -0.007   -0.011  0.037 -0.036    0.016 -0.132  0.088
 O         -0.072  0.017  0.043   -0.073 -0.035 -0.022    0.183  0.037  0.054
 O         -0.069  0.040  0.068    0.078  0.046  0.006   -0.223 -0.164 -0.012
 C          0.038  0.087 -0.028    0.032  0.207 -0.156   -0.072  0.279 -0.138
 H          0.071  0.223  0.052    0.042  0.212 -0.186   -0.182  0.188  0.178
 H          0.138 -0.026  0.014    0.009  0.164 -0.033   -0.122  0.238  0.026
 H         -0.064  0.115 -0.104    0.097  0.225 -0.134   -0.111  0.519 -0.335
 TransDip   0.091 -0.064 -0.009    0.011 -0.091  0.127   -0.017 -0.034  0.117

 Mode:                10                     11                     12
 Frequency:       339.47                 390.37                 418.64
 Force Cnst:      0.8023                 0.6274                 0.4036
 Red. Mass:      11.8163                 6.9874                 3.9086
 IR Active:          YES                    YES                    YES
 IR Intens:        6.018                  5.627                 13.726
 Raman Active:       YES                    YES                    YES
               X      Y      Z        X      Y      Z        X      Y      Z
 C         -0.019  0.031  0.123    0.090  0.101 -0.018    0.082 -0.068 -0.176
 O          0.653  0.187 -0.030    0.026  0.001  0.106    0.069 -0.171 -0.058
 C         -0.114  0.004 -0.033    0.207  0.057  0.143    0.069  0.009  0.021
 O         -0.192  0.155  0.049    0.330 -0.098  0.002   -0.047  0.211  0.131
 C          0.042 -0.007 -0.007   -0.056  0.178  0.069   -0.219  0.074 -0.009
 H          0.116 -0.049 -0.126   -0.147  0.409  0.194   -0.402  0.362  0.256
 H          0.002 -0.005  0.001   -0.144  0.097 -0.030   -0.288  0.004 -0.096
 H          0.127  0.034  0.105   -0.155  0.071 -0.060   -0.431 -0.116 -0.290
 C         -0.166 -0.045  0.070   -0.144 -0.023 -0.091    0.057 -0.072 -0.028
 O         -0.101 -0.196 -0.105   -0.309 -0.154 -0.032    0.055  0.033  0.054
 O         -0.175 -0.168 -0.139   -0.152  0.002 -0.071   -0.037 -0.029  0.032
 C         -0.010  0.028  0.109    0.060 -0.012 -0.080    0.033 -0.017 -0.003
 H         -0.001  0.068  0.133    0.095 -0.015 -0.239    0.090  0.052 -0.120
 H         -0.061 -0.057  0.345    0.100  0.082 -0.317    0.053 -0.046  0.017
 H          0.051  0.216  0.001    0.042 -0.267  0.100    0.071 -0.070  0.053
 TransDip  -0.069  0.004  0.037    0.068  0.033  0.011    0.075 -0.028 -0.088

 Mode:                13                     14                     15
 Frequency:       481.07                 554.13                 641.53
 Force Cnst:      0.3365                 0.6167                 0.9274
 Red. Mass:       2.4677                 3.4085                 3.8246
 IR Active:          YES                    YES                    YES
 IR Intens:       56.516                 75.441                 15.369
 Raman Active:       YES                    YES                    YES
               X      Y      Z        X      Y      Z        X      Y      Z
 C         -0.025  0.079 -0.028   -0.038 -0.161  0.181   -0.081 -0.113 -0.039
 O         -0.024  0.034  0.069   -0.006  0.017 -0.082    0.086 -0.113 -0.089
 C         -0.067 -0.141  0.178    0.045 -0.174  0.181   -0.127  0.016  0.104
 O         -0.019  0.069 -0.103    0.077  0.116  0.003    0.002 -0.104 -0.113
 C          0.017 -0.016 -0.044   -0.030 -0.069 -0.050   -0.001  0.279  0.190
 H          0.074  0.114 -0.149   -0.055  0.271 -0.050    0.098  0.166  0.055
 H         -0.007 -0.195 -0.280   -0.134 -0.330 -0.378    0.108  0.243  0.136
 H          0.078  0.214  0.032   -0.079  0.053 -0.115    0.108  0.515  0.334
 C          0.007 -0.022  0.063   -0.037  0.080 -0.032   -0.024 -0.037 -0.047
 O          0.075  0.001  0.022   -0.075  0.009 -0.063    0.022  0.068 -0.025
 O         -0.059 -0.061  0.005    0.104  0.082 -0.013    0.065 -0.003  0.048
 C          0.042  0.043 -0.098   -0.030  0.005 -0.046   -0.034 -0.028 -0.029
 H          0.251  0.275 -0.555   -0.124 -0.034  0.275    0.049  0.153 -0.074
 H          0.151 -0.100 -0.015   -0.107 -0.091  0.263   -0.045 -0.222  0.352
 H          0.195 -0.308  0.240   -0.025  0.381 -0.321    0.089  0.159 -0.102
 TransDip   0.191 -0.114  0.093   -0.089 -0.129  0.230   -0.111 -0.010  0.057

 Mode:                16                     17                     18
 Frequency:       761.77                 768.06                 814.93
 Force Cnst:      0.9704                 0.6283                 2.8932
 Red. Mass:       2.8383                 1.8076                 7.3942
 IR Active:          YES                    YES                    YES
 IR Intens:       25.736                 40.516                 10.094
 Raman Active:       YES                    YES                    YES
               X      Y      Z        X      Y      Z        X      Y      Z
 C          0.098 -0.003  0.015    0.042  0.031 -0.004   -0.008 -0.104 -0.073
 O          0.001  0.000 -0.005   -0.030  0.011  0.039   -0.042 -0.138 -0.130
 C         -0.096 -0.043  0.076    0.016  0.014 -0.035    0.007 -0.076 -0.025
 O         -0.069  0.014 -0.063   -0.008 -0.010  0.015   -0.018 -0.013 -0.026
 C         -0.031  0.022  0.040    0.002  0.009 -0.005    0.032  0.100  0.066
 H          0.070 -0.053 -0.113   -0.002 -0.007  0.009   -0.027  0.208  0.150
 H          0.090 -0.082 -0.112   -0.003  0.050  0.052   -0.035  0.102  0.073
 H          0.063  0.339  0.161    0.002 -0.044 -0.002    0.005  0.030  0.033
 C          0.204 -0.043 -0.134    0.114  0.049  0.005   -0.039  0.385  0.451
 O         -0.023 -0.089  0.114    0.005 -0.090  0.066    0.063 -0.203  0.013
 O         -0.093  0.092 -0.047   -0.062  0.063 -0.068   -0.019  0.068 -0.212
 C          0.082  0.030  0.013   -0.066 -0.089 -0.052    0.042  0.065  0.038
 H         -0.192 -0.396  0.442    0.120  0.309 -0.177   -0.065 -0.182  0.088
 H         -0.008  0.313 -0.371   -0.073 -0.432  0.611    0.063  0.252 -0.358
 H         -0.144  0.039 -0.109    0.173  0.357 -0.256   -0.110 -0.286  0.219
 TransDip   0.150  0.039 -0.049    0.178  0.036 -0.092    0.038  0.032  0.089

 Mode:                19                     20                     21
 Frequency:       839.86                 984.01                1027.93
 Force Cnst:      0.8571                 1.3561                 1.2597
 Red. Mass:       2.0623                 2.3771                 2.0235
 IR Active:          YES                    YES                    YES
 IR Intens:       22.420                 44.808                 34.025
 Raman Active:       YES                    YES                    YES
               X      Y      Z        X      Y      Z        X      Y      Z
 C         -0.012 -0.146  0.166   -0.079 -0.009 -0.038    0.227 -0.008  0.014
 O          0.013  0.017 -0.066    0.034 -0.063 -0.041   -0.044  0.013  0.010
 C          0.016  0.016 -0.051   -0.031  0.182  0.087    0.014 -0.034 -0.054
 O         -0.012 -0.007  0.015    0.118  0.014  0.056   -0.037  0.014  0.006
 C          0.003  0.020 -0.013   -0.146 -0.107 -0.070   -0.057  0.017  0.019
 H         -0.019 -0.047  0.031    0.135 -0.587 -0.467    0.052 -0.121 -0.128
 H         -0.026  0.119  0.121    0.215 -0.102 -0.093    0.107  0.011 -0.008
 H         -0.008 -0.122 -0.025    0.136  0.341  0.273    0.079  0.247  0.186
 C          0.084 -0.012 -0.086    0.001  0.020  0.030   -0.041  0.016  0.037
 O         -0.022 -0.022  0.034    0.018 -0.021  0.017   -0.044  0.029 -0.056
 O         -0.007  0.067 -0.017    0.000  0.024 -0.023    0.009 -0.047  0.023
 C         -0.071  0.084  0.014   -0.013  0.016 -0.010    0.003  0.064 -0.090
 H          0.115  0.246 -0.445   -0.007  0.021 -0.011   -0.190 -0.246  0.312
 H          0.105 -0.056 -0.035    0.000 -0.057  0.092    0.035 -0.326  0.506
 H          0.025 -0.539  0.531    0.001 -0.090  0.087    0.002 -0.363  0.274
 TransDip  -0.015 -0.054  0.141   -0.151  0.151  0.022    0.130 -0.133 -0.014

 Mode:                22                     23                     24
 Frequency:      1036.21                1040.31                1221.20
 Force Cnst:      0.9846                 0.9943                 4.0311
 Red. Mass:       1.5563                 1.5594                 4.5878
 IR Active:          YES                    YES                    YES
 IR Intens:       43.397                 36.580                 89.828
 Raman Active:       YES                    YES                    YES
               X      Y      Z        X      Y      Z        X      Y      Z
 C          0.120 -0.025  0.044   -0.100  0.022 -0.027    0.249 -0.027  0.053
 O         -0.022 -0.001 -0.012    0.017 -0.003  0.007   -0.012 -0.071 -0.064
 C          0.030  0.020 -0.088    0.001  0.088 -0.072   -0.174  0.317  0.239
 O         -0.028  0.000  0.007    0.007 -0.030  0.004   -0.068 -0.061 -0.077
 C         -0.046 -0.042  0.084    0.054 -0.074  0.104    0.139 -0.075 -0.054
 H          0.080  0.133 -0.132    0.017  0.490  0.081   -0.054  0.097  0.195
 H          0.102 -0.281 -0.264   -0.077 -0.472 -0.432   -0.300 -0.167 -0.132
 H          0.018  0.465  0.151   -0.123  0.191 -0.145   -0.177 -0.498 -0.440
 C         -0.024  0.014  0.017    0.018 -0.014 -0.013    0.006  0.037  0.041
 O         -0.019  0.012 -0.026    0.017 -0.012  0.024   -0.045  0.017 -0.048
 O          0.005 -0.020  0.008   -0.003  0.020 -0.011   -0.001 -0.040  0.013
 C         -0.034 -0.043  0.067    0.001  0.036 -0.030   -0.016 -0.012 -0.004
 H          0.193  0.306 -0.377   -0.101 -0.137  0.161    0.044  0.112 -0.050
 H          0.002  0.181 -0.344    0.011 -0.143  0.241    0.002 -0.005 -0.026
 H          0.047  0.251 -0.148   -0.028 -0.226  0.174    0.065  0.067 -0.017
 TransDip   0.127  0.116 -0.122   -0.177  0.007  0.078    0.174  0.249  0.003

 Mode:                25                     26                     27
 Frequency:      1362.72                1382.59                1438.19
 Force Cnst:     13.6803                 1.4237                 1.3327
 Red. Mass:      12.5036                 1.2641                 1.0936
 IR Active:          YES                    YES                    YES
 IR Intens:      153.490                 18.970                  3.326
 Raman Active:       YES                    YES                    YES
               X      Y      Z        X      Y      Z        X      Y      Z
 C         -0.200  0.069  0.026    0.005 -0.002  0.001   -0.007  0.023  0.008
 O          0.024 -0.055 -0.042    0.001 -0.003 -0.002    0.002 -0.012 -0.010
 C          0.008 -0.029 -0.037   -0.008  0.022  0.018   -0.010 -0.007 -0.003
 O          0.050  0.003  0.024    0.000 -0.002 -0.002    0.008  0.002  0.004
 C          0.000 -0.022 -0.009    0.013 -0.124 -0.080   -0.001 -0.003  0.002
 H         -0.045  0.066  0.058   -0.201  0.493  0.209    0.021  0.039 -0.036
 H         -0.067  0.058  0.086   -0.062  0.324  0.487    0.031  0.020  0.030
 H          0.033  0.184  0.039    0.140  0.519  0.116   -0.021 -0.009 -0.025
 C          0.622  0.373  0.036   -0.013 -0.007 -0.004    0.005 -0.007  0.006
 O         -0.274  0.122 -0.216    0.006 -0.003  0.005   -0.004  0.002 -0.002
 O         -0.117 -0.381  0.203    0.002  0.007 -0.004    0.000  0.002 -0.001
 C          0.011 -0.001  0.012    0.002  0.000 -0.003   -0.071  0.031  0.019
 H          0.002 -0.050 -0.038   -0.004 -0.006  0.010   -0.173 -0.269  0.009
 H         -0.034  0.034  0.015   -0.009 -0.001  0.016    0.580 -0.390 -0.300
 H         -0.103 -0.014 -0.031   -0.007 -0.011  0.000    0.469  0.274  0.096
 TransDip   0.294  0.266 -0.005   -0.043  0.081  0.105   -0.013 -0.012  0.056

 Mode:                28                     29                     30
 Frequency:      1467.29                1487.17                1491.14
 Force Cnst:      1.3680                 1.4225                 1.3906
 Red. Mass:       1.0785                 1.0916                 1.0615
 IR Active:          YES                    YES                    YES
 IR Intens:        8.791                 40.223                 10.050
 Raman Active:       YES                    YES                    YES
               X      Y      Z        X      Y      Z        X      Y      Z
 C         -0.009  0.000 -0.004   -0.003  0.002  0.004   -0.001  0.018  0.012
 O          0.002  0.001  0.001    0.001 -0.004 -0.003    0.001 -0.011 -0.009
 C          0.012  0.000  0.003    0.023  0.021  0.028   -0.002  0.014 -0.010
 O         -0.008 -0.001 -0.004   -0.025 -0.008 -0.016   -0.001 -0.002  0.001
 C         -0.012 -0.003  0.001   -0.059 -0.016 -0.001   -0.005  0.023 -0.055
 H          0.009  0.086 -0.038    0.056  0.478 -0.210   -0.359 -0.071  0.535
 H          0.129  0.012  0.005    0.697  0.054  0.023    0.048 -0.189 -0.301
 H          0.017 -0.066  0.028    0.067 -0.414  0.132    0.409 -0.142  0.507
 C          0.006  0.005 -0.001    0.012 -0.010  0.011   -0.005  0.004 -0.009
 O         -0.002  0.000 -0.002   -0.008  0.005 -0.007    0.004 -0.002  0.004
 O         -0.001 -0.004  0.002    0.000  0.002 -0.002    0.000 -0.002  0.002
 C         -0.029 -0.050 -0.050    0.010  0.007  0.009   -0.005  0.001  0.002
 H          0.038  0.490  0.561   -0.002 -0.085 -0.097   -0.008 -0.011 -0.005
 H         -0.167  0.167 -0.169    0.006 -0.012  0.044    0.031 -0.022 -0.014
 H          0.497 -0.055  0.268   -0.114 -0.006 -0.053    0.024  0.015  0.009
 TransDip   0.060  0.037  0.064    0.157  0.000  0.129   -0.069  0.035  0.066

 Mode:                31                     32                     33
 Frequency:      1516.55                1601.16                1610.76
 Force Cnst:     13.9698                12.5979                17.8034
 Red. Mass:      10.3092                 8.3402                11.6464
 IR Active:          YES                    YES                    YES
 IR Intens:      375.362                554.466                521.802
 Raman Active:       YES                    YES                    YES
               X      Y      Z        X      Y      Z        X      Y      Z
 C          0.029  0.608  0.383   -0.114  0.099  0.073    0.042 -0.057 -0.013
 O          0.000 -0.347 -0.278    0.011 -0.060 -0.050   -0.004  0.021  0.016
 C         -0.087 -0.138 -0.086    0.605  0.120  0.205   -0.016  0.022  0.009
 O          0.061  0.031  0.038   -0.343 -0.085 -0.163    0.008 -0.002  0.000
 C          0.017  0.002  0.018   -0.034 -0.001 -0.005   -0.014 -0.009  0.008
 H          0.104  0.082 -0.132    0.038 -0.407 -0.052    0.073  0.124 -0.132
 H          0.029  0.068  0.098   -0.262 -0.018  0.015    0.168  0.022  0.013
 H         -0.097 -0.033 -0.144    0.011  0.323  0.016   -0.038 -0.102 -0.044
 C         -0.076 -0.038 -0.060   -0.014  0.015 -0.018   -0.287  0.573 -0.513
 O          0.045 -0.015  0.038    0.009 -0.004  0.008    0.221 -0.164  0.219
 O          0.001  0.012  0.000    0.000 -0.003  0.003   -0.029 -0.251  0.152
 C         -0.001 -0.021  0.006    0.002 -0.003  0.004   -0.008  0.010  0.006
 H          0.034  0.123  0.026   -0.061 -0.141  0.059   -0.056 -0.105  0.003
 H         -0.208  0.085  0.191    0.080 -0.088  0.073    0.080 -0.080 -0.007
 H         -0.143 -0.145  0.048    0.018 -0.001 -0.005    0.020  0.011  0.019
 TransDip  -0.300  0.245  0.485    0.335 -0.063  0.673   -0.257  0.479 -0.489

 Mode:                34                     35                     36
 Frequency:      2995.54                3004.68                3055.44
 Force Cnst:      5.4558                 5.5302                 6.0359
 Red. Mass:       1.0320                 1.0397                 1.0974
 IR Active:          YES                    YES                    YES
 IR Intens:       75.720                138.104                 58.895
 Raman Active:       YES                    YES                    YES
               X      Y      Z        X      Y      Z        X      Y      Z
 C          0.000  0.000  0.000    0.001 -0.001  0.000    0.000  0.000  0.001
 O          0.000  0.000  0.000    0.000  0.000  0.000    0.000  0.000  0.000
 C          0.001 -0.001  0.000   -0.003  0.000 -0.001   -0.001  0.000  0.001
 O         -0.001  0.000  0.000    0.001  0.000  0.000    0.000  0.000  0.000
 C         -0.014  0.012  0.012   -0.032  0.032  0.024   -0.036 -0.053  0.063
 H         -0.099 -0.003 -0.057   -0.216 -0.006 -0.124    0.053 -0.010  0.056
 H          0.004 -0.139  0.115    0.013 -0.371  0.298   -0.053  0.665 -0.506
 H          0.261  0.005 -0.198    0.592  0.008 -0.449    0.430 -0.012 -0.314
 C          0.000  0.000  0.000    0.000  0.000  0.000    0.000 -0.001  0.000
 O          0.000  0.000  0.000    0.000  0.000  0.000    0.000  0.000  0.000
 O          0.000  0.000  0.000    0.000  0.000  0.000    0.000  0.001  0.000
 C          0.016 -0.006 -0.037   -0.006  0.002  0.016    0.001 -0.002 -0.001
 H          0.325 -0.118  0.051   -0.148  0.054 -0.026   -0.024  0.007 -0.006
 H         -0.222 -0.246 -0.160    0.099  0.110  0.070    0.019  0.018  0.011
 H         -0.301  0.444  0.547    0.126 -0.185 -0.231    0.001  0.000 -0.006
 TransDip   0.049  0.127 -0.243   -0.243  0.220  0.184   -0.111 -0.136  0.172

 Mode:                37                     38                     39
 Frequency:      3123.93                3137.92                3181.79
 Force Cnst:      6.2944                 6.3542                 6.6280
 Red. Mass:       1.0947                 1.0953                 1.1112
 IR Active:          YES                    YES                    YES
 IR Intens:       51.990                 29.078                 16.495
 Raman Active:       YES                    YES                    YES
               X      Y      Z        X      Y      Z        X      Y      Z
 C          0.000  0.001  0.001    0.000  0.000  0.000    0.000  0.000  0.000
 O          0.000 -0.001  0.000    0.000  0.000  0.000    0.000  0.000  0.000
 C          0.000  0.001  0.000   -0.003  0.001  0.000   -0.001  0.000 -0.001
 O          0.000  0.000  0.000    0.001  0.000  0.000    0.001  0.000  0.000
 C         -0.011  0.000 -0.003   -0.077  0.007 -0.043   -0.001  0.000  0.000
 H          0.093  0.005  0.060    0.809  0.054  0.504    0.010  0.002  0.006
 H         -0.002 -0.004  0.001   -0.006 -0.156  0.114    0.000 -0.004  0.003
 H          0.037 -0.001 -0.029    0.130  0.003 -0.114    0.003  0.000 -0.003
 C          0.000  0.000  0.000    0.000  0.000  0.000    0.000  0.000  0.000
 O          0.000  0.000  0.000    0.000  0.000  0.000    0.000  0.000  0.000
 O          0.000  0.000  0.000    0.000  0.000  0.000    0.000  0.000  0.000
 C         -0.029  0.073  0.040    0.005 -0.008 -0.004   -0.089 -0.018 -0.034
 H          0.531 -0.188  0.137   -0.068  0.024 -0.017    0.651 -0.264  0.156
 H         -0.394 -0.401 -0.227    0.037  0.040  0.021    0.427  0.472  0.259
 H          0.208 -0.284 -0.387   -0.028  0.038  0.052   -0.013 -0.002 -0.004
 TransDip  -0.044  0.194  0.117   -0.139 -0.024 -0.100   -0.108 -0.046 -0.056

 STANDARD THERMODYNAMIC QUANTITIES AT   298.15 K  AND     1.00 ATM

   This Molecule has  1 Imaginary Frequencies
   Zero point vibrational energy:       63.966 kcal/mol

   Atom    1 Element C  Has Mass   12.00000
   Atom    2 Element O  Has Mass   15.99491
   Atom    3 Element C  Has Mass   12.00000
   Atom    4 Element O  Has Mass   15.99491
   Atom    5 Element C  Has Mass   12.00000
   Atom    6 Element H  Has Mass    1.00783
   Atom    7 Element H  Has Mass    1.00783
   Atom    8 Element H  Has Mass    1.00783
   Atom    9 Element C  Has Mass   12.00000
   Atom   10 Element O  Has Mass   15.99491
   Atom   11 Element O  Has Mass   15.99491
   Atom   12 Element C  Has Mass   12.00000
   Atom   13 Element H  Has Mass    1.00783
   Atom   14 Element H  Has Mass    1.00783
   Atom   15 Element H  Has Mass    1.00783
   Molecular Mass:   130.026620 amu
   Principal axes and moments of inertia in amu*Bohr^2:
                             1           2           3
    Eigenvalues --      803.33222  1321.21842  1462.97319
          X               0.99910    -0.02625    -0.03339
          Y               0.02489     0.99888    -0.04036
          Z               0.03442     0.03949     0.99863
   Rotational Symmetry Number is   1
   The Molecule is an Asymmetric Top
   Translational Enthalpy:        0.889 kcal/mol
   Rotational Enthalpy:           0.889 kcal/mol
   Vibrational Enthalpy:         68.162 kcal/mol
   gas constant (RT):             0.592 kcal/mol
   Translational Entropy:        40.501  cal/mol.K
   Rotational Entropy:           28.831  cal/mol.K
   Vibrational Entropy:          25.188  cal/mol.K

   Total Enthalpy:               70.532 kcal/mol
   Total Entropy:                94.519  cal/mol.K
Archival summary:
1\1\bt2600-16\FREQ\ProcedureUnspecified\6-31+G*\456(2-,1)\emavera\WedJun712:21:282017WedJun712:21:282017\0\\#,FREQ,ProcedureUnspecified,6-31+G*,\\-2,1\C\O,1,1.2653\C,1,1.50217,2,121.843\O,3,1.2532,1,124.415,2,-1.7385,0\C,3,1.53555,1,118.191,2,172.686,0\H,5,1.09265,3,113.498,1,15.3583,0\H,5,1.09933,3,108.074,1,-104.412,0\H,5,1.10048,3,108.784,1,138.197,0\C,1,1.58072,2,117.115,3,157.458,0\O,9,1.26244,1,119.565,2,76.5757,0\O,9,1.27091,1,113.41,2,-99.857,0\C,1,2.08705,2,107.693,3,-84.0036,0\H,12,1.09239,1,91.1096,2,-79.9817,0\H,12,1.09253,1,98.3956,2,34.4528,0\H,12,1.10049,1,126.595,2,161.216,0\\\@

 Total job time:  3000.65s(wall), 3000.67s(cpu) 
 Wed Jun  7 12:21:28 2017

        *************************************************************
        *                                                           *
        *  Thank you very much for using Q-Chem.  Have a nice day.  *
        *                                                           *
        *************************************************************


0 sent ACK to 0 
now end server 0 ... 
cleanup process ... done

Running Job 2 of 2 irc1030.qcin
qchem irc1030.qcin_36115.1 /tmp/irc1030.qcin/ 1
/programs/x86_64/lib/qchem-4.3.2/bin/mpi/mpirun_qchem -machinefile /var/spool/torque/aux//119449.vali -np 1 /programs/x86_64/lib/qchem-4.3.2/exe/qcprog.exe irc1030.qcin_36115.1 /tmp/irc1030.qcin/

Process 0 of 1 is on bt2600-16.csail.mit.edu - thread support 0
initial socket setup ...start
initial socket setup ...done 
now start server 0 ... 

cmd = ssh thor /programs/x86_64/lib/qchem-4.3.2/bin/get_hostid 2040433724 > /tmp/irc1030.qcin/lic.dat
                  Welcome to Q-Chem
     A Quantum Leap Into The Future Of Chemistry


 Q-Chem 4.3, Q-Chem, Inc., Pleasanton, CA (2015)

 Y. Shao,  Z. Gan,  E. Epifanovsky,  A. T. B. Gilbert,  M. Wormit,  
 J. Kussmann,  A. W. Lange,  A. Behn,  J. Deng,  X. Feng,  D. Ghosh,  
 M. Goldey,  P. R. Horn,  L. D. Jacobson,  I. Kaliman,  R. Z. Khaliullin,  
 T. Kus,  A. Landau,  J. Liu,  E. I. Proynov,  Y. M. Rhee,  R. M. Richard,  
 M. A. Rohrdanz,  R. P. Steele,  E. J. Sundstrom,  H. L. Woodcock III,  
 P. M. Zimmerman,  D. Zuev,  B. Albrecht,  E. Alguire,  B. Austin,  
 S. A. Baeppler,  G. J. O. Beran,  Y. A. Bernard,  E. Berquist,  
 K. Brandhorst,  K. B. Bravaya,  S. T. Brown,  D. Casanova,  C.-M. Chang,  
 Y. Chen,  S. H. Chien,  K. D. Closser,  D. L. Crittenden,  M. Diedenhofen,  
 R. A. DiStasio Jr.,  H. Do,  A. D. Dutoi,  R. G. Edgar,  P.-T. Fang,  
 S. Fatehi,  Q. Feng,  L. Fusti-Molnar,  A. Ghysels,  
 A. Golubeva-Zadorozhnaya,  J. Gomes,  A. Gunina,  M. W. D. Hanson-Heine,  
 P. H. P. Harbach,  A. W. Hauser,  E. G. Hohenstein,  Z. C. Holden,  K. Hui,  
 T.-C. Jagau,  H. Ji,  B. Kaduk,  K. Khistyaev,  Jaehoon Kim,  Jihan Kim,  
 R. A. King,  P. Klunzinger,  D. Kosenkov,  T. Kowalczyk,  C. M. Krauter,  
 K. U. Lao,  A. Laurent,  K. V. Lawler,  S. Lehtola,  S. V. Levchenko,  
 C. Y. Lin,  Y.-S. Lin,  F. Liu,  E. Livshits,  R. C. Lochan,  A. Luenser,  
 P. Manohar,  S. F. Manzer,  S.-P. Mao,  N. Mardirossian,  A. V. Marenich,  
 L. A. Martinez-Martinez,  S. A. Maurer,  N. J. Mayhall,  K. Nanda,  
 C. M. Oana,  R. Olivares-Amaya,  D. P. O'Neill,  J. A. Parkhill,  
 T. M. Perrine,  R. Peverati,  P. A. Pieniazek,  F. Plasser,  A. Prociuk,  
 D. R. Rehn,  E. Rosta,  N. J. Russ,  N. Sergueev,  S. M. Sharada,  
 S. Sharma,  D. W. Small,  A. Sodt,  T. Stauch,  T. Stein,  D. Stuck,  
 Y.-C. Su,  A. J. W. Thom,  T. Tsuchimochi,  L. Vogt,  O. Vydrov,  T. Wang,  
 M. A. Watson,  J. Wenzel,  A. White,  C. F. Williams,  V. Vanovschi,  
 S. Yeganeh,  S. R. Yost,  Z.-Q. You,  I. Y. Zhang,  X. Zhang,  Y. Zhao,  
 B. R. Brooks,  G. K. L. Chan,  D. M. Chipman,  C. J. Cramer,  
 W. A. Goddard III,  M. S. Gordon,  W. J. Hehre,  A. Klamt,  
 H. F. Schaefer III,  M. W. Schmidt,  C. D. Sherrill,  D. G. Truhlar,  
 A. Warshel,  X. Xu,  A. Aspuru-Guzik,  R. Baer,  A. T. Bell,  N. A. Besley,  
 J.-D. Chai,  A. Dreuw,  B. D. Dunietz,  T. R. Furlani,  S. R. Gwaltney,  
 C.-P. Hsu,  Y. Jung,  J. Kong,  D. S. Lambrecht,  W. Liang,  C. Ochsenfeld,  
 V. A. Rassolov,  L. V. Slipchenko,  J. E. Subotnik,  T. Van Voorhis,  
 J. M. Herbert,  A. I. Krylov,  P. M. W. Gill,  M. Head-Gordon

 Contributors to earlier versions of Q-Chem not listed above: 
 R. D. Adamson,  J. Baker,  E. F. C. Byrd,  A. K. Chakraborty,  C.-L. Cheng,  
 H. Dachsel,  R. J. Doerksen,  G. Hawkins,  A. Heyden,  S. Hirata,  
 G. Kedziora,  F. J. Keil,  C. Kelley,  P. P. Korambath,  W. Kurlancheek,  
 A. M. Lee,  M. S. Lee,  D. Liotard,  I. Lotan,  P. E. Maslen,  N. Nair,  
 D. Neuhauser,  R. Olson,  B. Peters,  J. Ritchie,  N. E. Schultz,  
 N. Shenvi,  A. C. Simmonett,  K. S. Thanthiriwatte,  Q. Wu,  W. Zhang

 Please cite Q-Chem as follows:
 Y. Shao et al., Mol. Phys. 113, 184-215 (2015)
 DOI: 10.1080/00268976.2014.952696

 Q-Chem 4.3.0 for Intel X86 Linux

 Parts of Q-Chem use Armadillo 5.200.1 (Boston Tea Smuggler).
 http://arma.sourceforge.net/

 Q-Chem begins on Wed Jun  7 12:21:31 2017  

Host: 
0

     Scratch files written to /tmp/irc1030.qcin//
 Oct1215 13750_ 19228  19214 4150   
 Parallel job on  1  processors
Processing $rem in /programs/x86_64/lib/qchem-4.3.2/config/preferences.
 MEM_TOTAL  2000 

Checking the input file for inconsistencies... 	...done.

--------------------------------------------------------------
User input:
--------------------------------------------------------------
$molecule
READ
$end

$rem
RPATH_MAX_CYCLES 120
jobtype rpath
basis 6-31+G(d)
exchange b3lyp
pdb_print 2
scf_guess read
$end
--------------------------------------------------------------
 ----------------------------------------------------------------
             Standard Nuclear Orientation (Angstroms)
    I     Atom           X                Y                Z
 ----------------------------------------------------------------
    1      C       0.0819789904    -0.4882173594    -0.4250650683
    2      O       0.1322467979    -1.4543016630    -1.2406174597
    3      C      -1.1856899729     0.2811002458    -0.1849161196
    4      O      -2.2843707787     0.0238832322    -0.7301180291
    5      C      -1.1148750040     1.5411948631     0.6897560388
    6      H      -0.1940733509     1.6152802869     1.2732948146
    7      H      -1.1702630104     2.4183290531     0.0293734045
    8      H      -1.9878441626     1.5570868074     1.3596313456
    9      C       1.4443152234     0.2359983700    -0.0812323166
   10      O       2.2601063307    -0.3144400599     0.7095061088
   11      O       1.6156565418     1.3200649701    -0.7220552150
   12      C      -0.6287127877    -1.2285860107     1.3922300870
   13      H       0.3600565545    -1.6185957215     1.6443128319
   14      H      -1.3161326702    -1.9816340997     0.9998034671
   15      H      -1.0629531887    -0.6410588134     2.2152251688
 ----------------------------------------------------------------
 Molecular Point Group                 C1    NOp =  1
 Largest Abelian Subgroup              C1    NOp =  1
 Nuclear Repulsion Energy =   448.1388756942 hartrees
 There are       35 alpha and       35 beta electrons
 Requested basis set is 6-31+G(d)
 There are 57 shells and 183 basis functions

 Total QAlloc Memory Limit   2000 MB
 Mega-Array Size        61 MB
 MEM_STATIC part        62 MB
In calcReactionPath2: starting direction = 1

                       Distance Matrix (Angstroms)
             C (  1)   O (  2)   C (  3)   O (  4)   C (  5)   H (  6)
   O (  2)  1.265295
   C (  3)  1.502167  2.421380
   O (  4)  2.440270  2.878486  1.253198
   C (  5)  2.606492  3.775534  1.535547  2.384533
   H (  6)  2.717597  3.981027  2.211271  3.303869  1.092649
   H (  7)  3.197286  4.278630  2.148000  2.747987  1.099335  1.773464
   H (  8)  3.413587  4.508275  2.158059  2.608772  1.100482  1.796790
   C (  9)  1.580718  2.433683  2.632435  3.790665  2.974461  2.534064
   O ( 10)  2.462050  3.103233  3.609456  4.779043  3.851528  3.172487
   O ( 11)  2.389614  3.188498  3.035706  4.109789  3.081868  2.709925
   C ( 12)  2.087053  2.749890  2.253168  2.968879  2.898536  2.879346
   H ( 13)  2.374322  2.898571  3.056838  3.915183  3.615367  3.301919
   H ( 14)  2.493042  2.719443  2.557448  2.819967  3.542169  3.777778
   H ( 15)  2.881903  3.746027  2.574125  3.257154  2.663078  2.594851
             H (  7)   H (  8)   C (  9)   O ( 10)   O ( 11)   C ( 12)
   H (  8)  1.783189
   C (  9)  3.407465  3.949820
   O ( 10)  4.438248  4.687255  1.262444
   O ( 11)  3.087422  4.168311  1.270910  2.266338
   C ( 12)  3.930731  3.099722  2.934884  3.105970  4.000377
   H ( 13)  4.609411  3.959626  2.755475  2.486941  3.976425  1.092391
   H ( 14)  4.508069  3.619837  3.702243  3.956424  4.739346  1.092532
   H ( 15)  3.761558  2.533635  3.511316  3.662867  4.432671  1.100488
             H ( 13)   H ( 14)
   H ( 14)  1.832157
   H ( 15)  1.818372  1.827154
 
 A cutoff of  1.0D-11 yielded   1549 shell pairs
 There are     16660 function pairs
 
 -------------------------------------------------------
[...]
 Correlation:  0.1900 VWN1RPA + 0.8100 LYP
 Using SG-1 standard quadrature grid
 SCF converges when DIIS error is below 1.0E-08
 CPU 0.00 s  wall 0.00 s
 CPU 7.00 s  wall 7.00 s
 ---------------------------------------
  Cycle       Energy         DIIS Error
 ---------------------------------------
    1    -494.9696600410      1.15E-03
 CPU 0.00 s  wall 0.00 s
 CPU 5.29 s  wall 5.29 s
    2    -494.9852185558      4.86E-04
 CPU 0.00 s  wall 0.00 s
 CPU 5.31 s  wall 5.31 s
    3    -494.9832397493      8.98E-04
 CPU 0.00 s  wall 0.00 s
 CPU 5.28 s  wall 5.28 s
    4    -494.9862018727      1.09E-04
 CPU 0.00 s  wall 0.00 s
 CPU 5.22 s  wall 5.22 s
    5    -494.9862432872      4.58E-05
 CPU 0.00 s  wall 0.00 s
 CPU 5.14 s  wall 5.14 s
    6    -494.9862503466      1.47E-05
 CPU 0.00 s  wall 0.00 s
 CPU 5.07 s  wall 5.07 s
    7    -494.9862510269      3.23E-06
 CPU 0.00 s  wall 0.00 s
 CPU 4.98 s  wall 4.98 s
    8    -494.9862510612      1.52E-06
 CPU 0.00 s  wall 0.00 s
 CPU 4.87 s  wall 4.87 s
    9    -494.9862510690      4.80E-07
 CPU 0.00 s  wall 0.00 s
 CPU 4.79 s  wall 4.79 s
   10    -494.9862510686      1.90E-07
 CPU 0.00 s  wall 0.00 s
 CPU 4.66 s  wall 4.66 s
   11    -494.9862510678      6.63E-08
 CPU 0.00 s  wall 0.00 s
 CPU 4.51 s  wall 4.51 s
   12    -494.9862510686      1.69E-08
 CPU 0.00 s  wall 0.00 s
 CPU 4.17 s  wall 4.17 s
   13    -494.9862510675      4.48E-09 Convergence criterion met
 ---------------------------------------
 SCF time:  CPU 152.44 s  wall 152.11 s
 SCF   energy in the final basis set = -494.9862510675
 Total energy in the final basis set = -494.9862510675
 
 --------------------------------------------------------------
 
                    Orbital Energies (a.u.)
 --------------------------------------------------------------
 
 Alpha MOs
 -- Occupied --
-18.812 -18.795 -18.793 -18.791  -9.966  -9.965  -9.948  -9.910
 -9.883  -0.717  -0.697  -0.664  -0.626  -0.460  -0.387  -0.341
 -0.247  -0.178  -0.154  -0.144  -0.138  -0.115  -0.104  -0.098
 -0.096  -0.086  -0.069  -0.056  -0.005   0.028   0.051   0.055
  0.072   0.099   0.108
 -- Virtual --
  0.226   0.242   0.266   0.278   0.280   0.298   0.302   0.308
  0.310   0.325   0.331   0.340   0.342   0.348   0.350   0.364
  0.374   0.386   0.387   0.397   0.409   0.435   0.459   0.485
  0.492   0.502   0.516   0.525   0.531   0.547   0.550   0.556
  0.562   0.571   0.579   0.589   0.596   0.597   0.609   0.618
  0.625   0.628   0.644   0.652   0.668   0.687   0.688   0.735
  0.748   0.788   0.833   0.841   0.943   0.966   0.998   1.008
  1.023   1.062   1.089   1.103   1.120   1.129   1.157   1.173
  1.213   1.222   1.251   1.284   1.292   1.313   1.325   1.366
  1.416   1.446   1.471   1.486   1.516   1.558   1.597   1.610
  1.615   1.627   1.641   1.654   1.667   1.679   1.687   1.718
  1.738   1.752   1.784   1.812   1.882   1.893   1.906   1.935
  1.978   1.994   2.034   2.060   2.097   2.105   2.143   2.163
  2.170   2.212   2.234   2.250   2.263   2.278   2.316   2.335
  2.359   2.378   2.419   2.444   2.468   2.535   2.558   2.571
  2.594   2.605   2.638   2.698   2.706   2.761   2.836   2.893
  2.954   2.995   3.060   3.067   3.187   3.274   3.400   3.406
  3.430   3.511   3.579   4.484   4.528   4.596   4.677   4.706
  4.770   4.842   4.926   5.117
 --------------------------------------------------------------
 
          Ground-State Mulliken Net Atomic Charges

     Atom                 Charge (a.u.)
  ----------------------------------------
      1 C                     0.276040
      2 O                    -0.573402
      3 C                     0.306599
      4 O                    -0.576171
      5 C                    -0.768440
      6 H                     0.221015
      7 H                     0.188193
      8 H                     0.170380
      9 C                     0.325216
     10 O                    -0.600519
     11 O                    -0.607587
     12 C                    -0.945814
     13 H                     0.233391
     14 H                     0.202486
     15 H                     0.148612
  ----------------------------------------
  Sum of atomic charges =    -2.000000

 -----------------------------------------------------------------
                    Cartesian Multipole Moments
 -----------------------------------------------------------------
    Charge (ESU x 10^10)
                -9.6064
    Dipole Moment (Debye)
         X      -2.6480      Y       2.3906      Z       2.3536
       Tot       4.2739
    Quadrupole Moments (Debye-Ang)
        XX    -100.8383     XY      -5.3598     YY     -78.7203
        XZ      -3.2259     YZ       2.2920     ZZ     -76.9380
    Octopole Moments (Debye-Ang^2)
       XXX      -3.2943    XXY      -7.4446    XYY      -4.8836
       YYY       9.2898    XXZ      -1.9012    XYZ       3.8346
       YYZ      -2.6737    XZZ       6.0208    YZZ      18.5253
       ZZZ     -20.6355
    Hexadecapole Moments (Debye-Ang^3)
      XXXX   -1063.7830   XXXY     -17.0015   XXYY    -253.7517
      XYYY     -21.1412   YYYY    -558.4396   XXXZ     -29.9911
      XXYZ      20.5311   XYYZ      28.1047   YYYZ      21.1621
      XXZZ    -236.1165   XYZZ     -15.6628   YYZZ    -193.7895
      XZZZ      30.9789   YZZZ      35.1352   ZZZZ    -453.6198
 -----------------------------------------------------------------
 Calculating analytic gradient of the SCF energy
 CPU 0.00 s  wall 0.00 s
 CPU 8.34 s  wall 8.34 s
 Gradient of SCF Energy
            1           2           3           4           5           6
    1  -0.0031017  -0.0000015   0.0127082  -0.0106058  -0.0005225  -0.0001095
    2   0.0149256  -0.0132257   0.0023595  -0.0016054   0.0003494  -0.0004760
    3   0.0113790  -0.0093570   0.0032219  -0.0058123  -0.0005431  -0.0003503
            7           8           9          10          11          12
    1  -0.0002018  -0.0001970   0.0022263  -0.0031383   0.0001021   0.0012725
    2   0.0005020   0.0001480  -0.0089136   0.0027153   0.0049756  -0.0011593
    3   0.0004339   0.0001478   0.0068978  -0.0031746  -0.0028500   0.0000272
           13          14          15
    1   0.0002920   0.0005450   0.0007319
    2  -0.0007154  -0.0001512   0.0002712
    3   0.0004111   0.0000350  -0.0004663
 Max gradient component =       1.493E-02
 RMS gradient           =       5.054E-03
 Gradient time:  CPU 65.44 s  wall 65.49 s
 IRC --- Status = 3.  Assess initial corrector step
 IRC --- bisector search: b =  0.000000 E =     -494.986694 G.B =  -0.012115
 IRC --- bisector search: b =  0.050108 E =     -494.986251 G.B =   0.029056
 IRC --- performed gradient/energy interpolation
 IRC --- bisector search:  estimate b(min) =   1.448259388971430E-002
 ----------------------------------------------------------------
             Standard Nuclear Orientation (Angstroms)
    I     Atom           X                Y                Z
 ----------------------------------------------------------------
    1      C       0.1011887558    -0.4704720587    -0.4655547073
    2      O       0.1465225689    -1.4398620928    -1.2643053781
    3      C      -1.1772893017     0.2502191526    -0.1563580038
    4      O      -2.2795815315     0.0003748294    -0.7123208152
    5      C      -1.1074781958     1.5302698498     0.6926670287
    6      H      -0.1896371073     1.6194166764     1.2792630149
    7      H      -1.1663639476     2.4026455570     0.0236296718
    8      H      -1.9819565306     1.5540192489     1.3604898845
    9      C       1.4556725604     0.2424893920    -0.0960355794
   10      O       2.2585689089    -0.3148654416     0.7018993883
   11      O       1.6339327747     1.3305866782    -0.7266752900
   12      C      -0.6604968966    -1.2163121534     1.4061758623
   13      H       0.3408842733    -1.5935044891     1.6356093161
   14      H      -1.3332329697    -1.9784396644     1.0072988381
   15      H      -1.0912878515    -0.6504613887     2.2433458335
 ----------------------------------------------------------------
 Molecular Point Group                 C1    NOp =  1
 Largest Abelian Subgroup              C1    NOp =  1
 Nuclear Repulsion Energy =   447.8731211931 hartrees
 There are       35 alpha and       35 beta electrons

                       Distance Matrix (Angstroms)
             C (  1)   O (  2)   C (  3)   O (  4)   C (  5)   H (  6)
   O (  2)  1.256891
   C (  3)  1.499835  2.415864
   O (  4)  2.439397  2.874883  1.259589
   C (  5)  2.608701  3.771464  1.537611  2.385036
   H (  6)  2.737993  3.992735  2.216115  3.309920  1.092920
   H (  7)  3.178175  4.259966  2.159966  2.748050  1.100962  1.773149
   H (  8)  3.431107  4.514787  2.155971  2.607477  1.100574  1.795351
   C (  9)  1.574638  2.430851  2.633664  3.793488  2.974924  2.548415
   O ( 10)  2.457936  3.097147  3.586230  4.763843  3.838604  3.173091
   O ( 11)  2.379349  3.190113  3.065196  4.133432  3.093500  2.726283
   C ( 12)  2.154024  2.798701  2.204382  2.930834  2.872734  2.877355
   H ( 13)  2.394482  2.910479  2.985852  3.862650  3.569994  3.275866
   H ( 14)  2.549672  2.764042  2.518995  2.787180  3.530014  3.785016
   H ( 15)  2.965222  3.802492  2.564605  3.251399  2.675903  2.625791
             H (  7)   H (  8)   C (  9)   O ( 10)   O ( 11)   C ( 12)
   H (  8)  1.781166
   C (  9)  3.399363  3.957129
   O ( 10)  4.424374  4.680655  1.261740
   O ( 11)  3.090943  4.181009  1.270212  2.266828
   C ( 12)  3.906941  3.069703  2.977065  3.135212  4.037345
   H ( 13)  4.565029  3.921503  2.759025  2.486815  3.975257  1.094385
   H ( 14)  4.493257  3.608857  3.732006  3.970112  4.770785  1.092023
   H ( 15)  3.775479  2.536230  3.571705  3.702732  4.491370  1.098463
             H ( 13)   H ( 14)
   H ( 14)  1.829103
   H ( 15)  1.819283  1.830267
 
 Applying Cartesian multipole field
    Component          Value
    ---------          -----
     (2,0,0)        1.00000E-11
     (0,2,0)        2.00000E-11
     (0,0,2)       -3.00000E-11
 Nucleus-field energy     =     0.0000000047 hartrees
 Requested basis set is 6-31+G(d)
 There are 57 shells and 183 basis functions
 A cutoff of  1.0D-11 yielded   1548 shell pairs
 There are     16659 function pairs
 Smallest overlap matrix eigenvalue = 1.78E-05
 Guess MOs from SCF MO coefficient file
 Reading MOs from coefficient file
 Reading MOs from coefficient file
 A restricted hybrid HF-DFT SCF calculation will be
 performed using Pulay DIIS extrapolation
 Exchange:     0.2000 Hartree-Fock + 0.0800 Slater + 0.7200 B88
 Correlation:  0.1900 VWN1RPA + 0.8100 LYP
 Using SG-1 standard quadrature grid
 SCF converges when DIIS error is below 1.0E-08
 CPU 0.00 s  wall 0.00 s
 CPU 7.00 s  wall 7.00 s
 ---------------------------------------
  Cycle       Energy         DIIS Error
 ---------------------------------------
    1    -494.9993803720      8.23E-04
 CPU 0.00 s  wall 0.00 s
 CPU 5.29 s  wall 5.29 s
    2    -494.9862635069      3.43E-04
 CPU 0.00 s  wall 0.00 s
 CPU 5.30 s  wall 5.30 s
    3    -494.9852948123      6.31E-04
 CPU 0.00 s  wall 0.00 s
 CPU 5.28 s  wall 5.28 s
    4    -494.9867552438      7.65E-05
 CPU 0.00 s  wall 0.00 s
 CPU 5.22 s  wall 5.22 s
    5    -494.9867755156      3.36E-05
 CPU 0.00 s  wall 0.00 s
 CPU 5.14 s  wall 5.14 s
    6    -494.9867792198      1.13E-05
 CPU 0.00 s  wall 0.00 s
 CPU 5.06 s  wall 5.06 s
    7    -494.9867796210      2.53E-06
 CPU 0.00 s  wall 0.00 s
 CPU 4.97 s  wall 4.97 s
    8    -494.9867796420      1.33E-06
 CPU 0.00 s  wall 0.00 s
 CPU 4.87 s  wall 4.87 s
    9    -494.9867796466      3.66E-07
 CPU 0.00 s  wall 0.00 s
 CPU 4.72 s  wall 4.72 s
   10    -494.9867796481      1.49E-07
 CPU 0.00 s  wall 0.00 s
 CPU 4.59 s  wall 4.59 s
   11    -494.9867796482      4.19E-08
 CPU 0.00 s  wall 0.00 s
 CPU 4.40 s  wall 4.40 s
   12    -494.9867796481      1.22E-08
 CPU 0.00 s  wall 0.00 s
 CPU 3.98 s  wall 3.98 s
   13    -494.9867796470      3.41E-09 Convergence criterion met
 ---------------------------------------
 SCF time:  CPU 151.36 s  wall 151.06 s
 SCF   energy in the final basis set = -494.9867796470
 Total energy in the final basis set = -494.9867796470
 
 --------------------------------------------------------------
 
                    Orbital Energies (a.u.)
 --------------------------------------------------------------
 
 Alpha MOs
 -- Occupied --
-18.812 -18.797 -18.792 -18.791  -9.965  -9.963  -9.947  -9.909
 -9.881  -0.718  -0.702  -0.673  -0.626  -0.458  -0.386  -0.338
 -0.245  -0.178  -0.153  -0.144  -0.137  -0.115  -0.103  -0.098
 -0.096  -0.088  -0.069  -0.057  -0.009   0.026   0.050   0.055
  0.072   0.099   0.110
 -- Virtual --
  0.227   0.243   0.266   0.278   0.281   0.297   0.303   0.308
  0.310   0.326   0.331   0.340   0.343   0.348   0.350   0.364
  0.374   0.386   0.388   0.398   0.409   0.435   0.458   0.486
  0.492   0.503   0.516   0.525   0.532   0.547   0.551   0.556
  0.562   0.571   0.579   0.590   0.596   0.598   0.609   0.618
  0.626   0.627   0.643   0.652   0.668   0.688   0.693   0.734
  0.748   0.790   0.837   0.846   0.945   0.967   1.000   1.010
  1.024   1.066   1.092   1.104   1.121   1.132   1.156   1.176
  1.214   1.221   1.251   1.285   1.292   1.313   1.325   1.367
  1.415   1.445   1.471   1.486   1.515   1.560   1.598   1.610
  1.616   1.627   1.640   1.654   1.665   1.679   1.685   1.717
  1.737   1.752   1.787   1.813   1.883   1.893   1.906   1.933
  1.977   1.991   2.032   2.059   2.098   2.103   2.143   2.163
  2.171   2.213   2.234   2.250   2.262   2.281   2.321   2.337
  2.361   2.385   2.420   2.449   2.471   2.539   2.565   2.573
  2.596   2.606   2.640   2.701   2.712   2.768   2.844   2.899
  2.964   3.003   3.065   3.072   3.192   3.273   3.403   3.415
  3.438   3.516   3.585   4.486   4.530   4.597   4.679   4.707
  4.773   4.844   4.927   5.124
 --------------------------------------------------------------
 
          Ground-State Mulliken Net Atomic Charges

     Atom                 Charge (a.u.)
  ----------------------------------------
      1 C                     0.287445
      2 O                    -0.565545
      3 C                     0.306352
      4 O                    -0.573743
      5 C                    -0.769902
      6 H                     0.220809
      7 H                     0.186804
      8 H                     0.169730
      9 C                     0.319584
     10 O                    -0.606482
     11 O                    -0.601815
     12 C                    -0.954794
     13 H                     0.233140
     14 H                     0.200104
     15 H                     0.148313
  ----------------------------------------
  Sum of atomic charges =    -2.000000

 -----------------------------------------------------------------
                    Cartesian Multipole Moments
 -----------------------------------------------------------------
    Charge (ESU x 10^10)
                -9.6064
    Dipole Moment (Debye)
         X      -2.6705      Y       2.3711      Z       2.1201
       Tot       4.1531
    Quadrupole Moments (Debye-Ang)
        XX    -100.9123     XY      -5.3014     YY     -78.6867
        XZ      -3.1839     YZ       2.5023     ZZ     -76.9576
    Octopole Moments (Debye-Ang^2)
       XXX      -4.1291    XXY      -7.2438    XYY      -4.5233
       YYY       9.1453    XXZ      -2.6169    XYZ       3.7407
       YYZ      -3.4367    XZZ       6.1683    YZZ      18.6286
       ZZZ     -21.8853
    Hexadecapole Moments (Debye-Ang^3)
      XXXX   -1064.7747   XXXY     -16.9516   XXYY    -253.9466
      XYYY     -21.1543   YYYY    -558.2811   XXXZ     -29.2308
      XXYZ      20.6884   XYYZ      28.6669   YYYZ      22.4531
      XXZZ    -236.4181   XYZZ     -15.9266   YYZZ    -194.2272
      XZZZ      32.0591   YZZZ      36.4391   ZZZZ    -454.5314
 -----------------------------------------------------------------
 Calculating analytic gradient of the SCF energy
 CPU 0.00 s  wall 0.00 s
 CPU 8.34 s  wall 8.34 s
 Gradient of SCF Energy
            1           2           3           4           5           6
    1  -0.0006999  -0.0005377  -0.0008163   0.0004223  -0.0002337  -0.0002192
    2  -0.0018223   0.0002948   0.0000920   0.0013379   0.0001035  -0.0001141
    3   0.0017165   0.0009653  -0.0006021  -0.0008693  -0.0003404  -0.0003524
            7           8           9          10          11          12
    1  -0.0001783  -0.0000997  -0.0006979  -0.0002210  -0.0002960   0.0011661
    2   0.0012234   0.0000078   0.0001415   0.0000669  -0.0003736   0.0001689
    3   0.0002960  -0.0001167   0.0000012   0.0000308   0.0004104  -0.0007150
           13          14          15
    1   0.0008419   0.0006214   0.0009480
    2  -0.0010898  -0.0001050   0.0000681
    3   0.0005702  -0.0001426  -0.0008521
 Max gradient component =       1.822E-03
 RMS gradient           =       6.824E-04
 Gradient time:  CPU 65.39 s  wall 65.45 s
 IRC --- Status = 4.  Checking bisector search.
 IRC --- Bisector search finished successfully.
 ------------------------------------------------------------------------
 Reaction path following.  The coordinates are cartesian              
 Step   3 E=    -494.986780 |G|=  0.004578 S_lin= 0.2071 S_tot= 0.2107
 ------------------------------------------------------------------------
  IRC -- convergence criterion reached.
 ----------------------------------------------------------------
             Standard Nuclear Orientation (Angstroms)
    I     Atom           X                Y                Z
 ----------------------------------------------------------------
    1      C       0.0819789904    -0.4882173594    -0.4250650683
    2      O       0.1322467979    -1.4543016630    -1.2406174597
    3      C      -1.1856899729     0.2811002458    -0.1849161196
    4      O      -2.2843707787     0.0238832322    -0.7301180291
    5      C      -1.1148750040     1.5411948631     0.6897560388
    6      H      -0.1940733509     1.6152802869     1.2732948146
    7      H      -1.1702630104     2.4183290531     0.0293734045
    8      H      -1.9878441626     1.5570868074     1.3596313456
    9      C       1.4443152234     0.2359983700    -0.0812323166
   10      O       2.2601063307    -0.3144400599     0.7095061088
   11      O       1.6156565418     1.3200649701    -0.7220552150
   12      C      -0.6287127877    -1.2285860107     1.3922300870
   13      H       0.3600565545    -1.6185957215     1.6443128319
   14      H      -1.3161326702    -1.9816340997     0.9998034671
   15      H      -1.0629531887    -0.6410588134     2.2152251688
 ----------------------------------------------------------------
 Molecular Point Group                 C1    NOp =  1
 Largest Abelian Subgroup              C1    NOp =  1
 Nuclear Repulsion Energy =   448.1388756942 hartrees
 There are       35 alpha and       35 beta electrons
Archival summary:
1\1\bt2600-16\JobtypUnspecified\ProcedureUnspecified\6-31+G*\456(2-,1)\emavera\WedJun717:17:542017WedJun717:17:542017\0\\#,JobtypUnspecified,ProcedureUnspecified,6-31+G*,\\-2,1\C\O,1,1.26529\C,1,1.50217,2,121.843\O,3,1.2532,1,124.415,2,-1.7385,0\C,3,1.53555,1,118.191,2,172.686,0\H,5,1.09265,3,113.498,1,15.3583,0\H,5,1.09933,3,108.074,1,-104.412,0\H,5,1.10048,3,108.784,1,138.197,0\C,1,1.58072,2,117.115,3,157.458,0\O,9,1.26244,1,119.565,2,76.5757,0\O,9,1.27091,1,113.41,2,-99.857,0\C,1,2.08705,2,107.693,3,-84.0035,0\H,12,1.09239,1,91.1096,2,-79.9817,0\H,12,1.09253,1,98.3956,2,34.4528,0\H,12,1.10049,1,126.595,2,161.216,0\\\@

 Total job time:  17782.81s(wall), 17801.49s(cpu) 
 Wed Jun  7 17:17:54 2017

        *************************************************************
        *                                                           *
        *  Thank you very much for using Q-Chem.  Have a nice day.  *
        *                                                           *
        *************************************************************


0 sent ACK to 0 
now end server 0 ... 
cleanup process ... done
