
Running Job 1 of 3 ts1030.qcin
qchem ts1030.qcin_15464.0 /tmp/ts1030.qcin/ 1
/programs/x86_64/lib/qchem-4.3.2/bin/mpi/mpirun_qchem -machinefile /var/spool/torque/aux//119443.vali -np 1 /programs/x86_64/lib/qchem-4.3.2/exe/qcprog.exe ts1030.qcin_15464.0 /tmp/ts1030.qcin/

Process 0 of 1 is on bt2600-11.csail.mit.edu - thread support 0
initial socket setup ...start
initial socket setup ...done 
now start server 0 ... 

cmd = ssh thor /programs/x86_64/lib/qchem-4.3.2/bin/get_hostid 2004429079 > /tmp/ts1030.qcin/lic.dat
                  Welcome to Q-Chem
     A Quantum Leap Into The Future Of Chemistry


 Q-Chem 4.3, Q-Chem, Inc., Pleasanton, CA (2015)

 Y. Shao,  Z. Gan,  E. Epifanovsky,  A. T. B. Gilbert,  M. Wormit,  
 J. Kussmann,  A. W. Lange,  A. Behn,  J. Deng,  X. Feng,  D. Ghosh,  
 M. Goldey,  P. R. Horn,  L. D. Jacobson,  I. Kaliman,  R. Z. Khaliullin,  
 T. Kus,  A. Landau,  J. Liu,  E. I. Proynov,  Y. M. Rhee,  R. M. Richard,  
 M. A. Rohrdanz,  R. P. Steele,  E. J. Sundstrom,  H. L. Woodcock III,  
 P. M. Zimmerman,  D. Zuev,  B. Albrecht,  E. Alguire,  B. Austin,  
 S. A. Baeppler,  G. J. O. Beran,  Y. A. Bernard,  E. Berquist,  
 K. Brandhorst,  K. B. Bravaya,  S. T. Brown,  D. Casanova,  C.-M. Chang,  
 Y. Chen,  S. H. Chien,  K. D. Closser,  D. L. Crittenden,  M. Diedenhofen,  
 R. A. DiStasio Jr.,  H. Do,  A. D. Dutoi,  R. G. Edgar,  P.-T. Fang,  
 S. Fatehi,  Q. Feng,  L. Fusti-Molnar,  A. Ghysels,  
 A. Golubeva-Zadorozhnaya,  J. Gomes,  A. Gunina,  M. W. D. Hanson-Heine,  
 P. H. P. Harbach,  A. W. Hauser,  E. G. Hohenstein,  Z. C. Holden,  K. Hui,  
 T.-C. Jagau,  H. Ji,  B. Kaduk,  K. Khistyaev,  Jaehoon Kim,  Jihan Kim,  
 R. A. King,  P. Klunzinger,  D. Kosenkov,  T. Kowalczyk,  C. M. Krauter,  
 K. U. Lao,  A. Laurent,  K. V. Lawler,  S. Lehtola,  S. V. Levchenko,  
 C. Y. Lin,  Y.-S. Lin,  F. Liu,  E. Livshits,  R. C. Lochan,  A. Luenser,  
 P. Manohar,  S. F. Manzer,  S.-P. Mao,  N. Mardirossian,  A. V. Marenich,  
 L. A. Martinez-Martinez,  S. A. Maurer,  N. J. Mayhall,  K. Nanda,  
 C. M. Oana,  R. Olivares-Amaya,  D. P. O'Neill,  J. A. Parkhill,  
 T. M. Perrine,  R. Peverati,  P. A. Pieniazek,  F. Plasser,  A. Prociuk,  
 D. R. Rehn,  E. Rosta,  N. J. Russ,  N. Sergueev,  S. M. Sharada,  
 S. Sharma,  D. W. Small,  A. Sodt,  T. Stauch,  T. Stein,  D. Stuck,  
 Y.-C. Su,  A. J. W. Thom,  T. Tsuchimochi,  L. Vogt,  O. Vydrov,  T. Wang,  
 M. A. Watson,  J. Wenzel,  A. White,  C. F. Williams,  V. Vanovschi,  
 S. Yeganeh,  S. R. Yost,  Z.-Q. You,  I. Y. Zhang,  X. Zhang,  Y. Zhao,  
 B. R. Brooks,  G. K. L. Chan,  D. M. Chipman,  C. J. Cramer,  
 W. A. Goddard III,  M. S. Gordon,  W. J. Hehre,  A. Klamt,  
 H. F. Schaefer III,  M. W. Schmidt,  C. D. Sherrill,  D. G. Truhlar,  
 A. Warshel,  X. Xu,  A. Aspuru-Guzik,  R. Baer,  A. T. Bell,  N. A. Besley,  
 J.-D. Chai,  A. Dreuw,  B. D. Dunietz,  T. R. Furlani,  S. R. Gwaltney,  
 C.-P. Hsu,  Y. Jung,  J. Kong,  D. S. Lambrecht,  W. Liang,  C. Ochsenfeld,  
 V. A. Rassolov,  L. V. Slipchenko,  J. E. Subotnik,  T. Van Voorhis,  
 J. M. Herbert,  A. I. Krylov,  P. M. W. Gill,  M. Head-Gordon

 Contributors to earlier versions of Q-Chem not listed above: 
 R. D. Adamson,  J. Baker,  E. F. C. Byrd,  A. K. Chakraborty,  C.-L. Cheng,  
 H. Dachsel,  R. J. Doerksen,  G. Hawkins,  A. Heyden,  S. Hirata,  
 G. Kedziora,  F. J. Keil,  C. Kelley,  P. P. Korambath,  W. Kurlancheek,  
 A. M. Lee,  M. S. Lee,  D. Liotard,  I. Lotan,  P. E. Maslen,  N. Nair,  
 D. Neuhauser,  R. Olson,  B. Peters,  J. Ritchie,  N. E. Schultz,  
 N. Shenvi,  A. C. Simmonett,  K. S. Thanthiriwatte,  Q. Wu,  W. Zhang

 Please cite Q-Chem as follows:
 Y. Shao et al., Mol. Phys. 113, 184-215 (2015)
 DOI: 10.1080/00268976.2014.952696

 Q-Chem 4.3.0 for Intel X86 Linux

 Parts of Q-Chem use Armadillo 5.200.1 (Boston Tea Smuggler).
 http://arma.sourceforge.net/

 Q-Chem begins on Tue Jun  6 16:36:22 2017  

Host: 
0

     Scratch files written to /tmp/ts1030.qcin//
 Oct1215 13750_ 19228  19214 4150   
 Parallel job on  1  processors
Processing $rem in /programs/x86_64/lib/qchem-4.3.2/config/preferences.
 MEM_TOTAL  2000 

Checking the input file for inconsistencies... 	...done.

--------------------------------------------------------------
User input:
--------------------------------------------------------------
$comment
Title
$end

$molecule
-2 1
C         3.436        -1.226          2.568
O         4.568        -1.496          2.090
O         3.258        -1.538          3.789
C         2.344        -0.585          1.829
C         2.003        -2.111          0.368
O         1.217        -0.392          2.430
C         2.537        -0.141          0.440
O         1.530         0.558         -0.013
C         3.796         0.150         -0.262
H         3.608         0.157         -1.413
H         4.569        -0.602          0.069
H         4.183         1.218         -0.169
H         1.093        -1.764         -0.267
H         1.673        -2.752          1.237
H         2.923        -2.501         -0.142
$end


$solvent
CavityRadius    30
Dielectric     78.39
$end

$molecule
READ
$end

$rem
jobtype          FREQ
exchange         b3lyp
basis            6-31+G(d)
pdb_print 2
SOLVENT_METHOD ONSAGER
NBO TRUE
$end

--------------------------------------------------------------
 ----------------------------------------------------------------
             Standard Nuclear Orientation (Angstroms)
    I     Atom           X                Y                Z
 ----------------------------------------------------------------
    1      C       1.3905551169     0.2754115608     0.1331280348
    2      O       1.4068542326     1.5151401670    -0.0804494022
    3      O       2.5272483204    -0.2835176556     0.2572074135
    4      C       0.1778846336    -0.5397919340     0.2528759420
    5      C      -0.5784748415    -0.2876815841    -1.7330341053
    6      O       0.3009415652    -1.8117469761     0.4414664039
    7      C      -1.1536707485     0.0822135527     0.1914313416
    8      O      -2.1164495510    -0.7519360714     0.4831681788
    9      C      -1.5210874535     1.4855254042     0.4328579604
   10      H      -2.5791766984     1.6934973316    -0.0114266636
   11      H      -0.7101363793     2.1432908713     0.0058954966
   12      H      -1.7580687168     1.7597182691     1.5134597158
   13      H      -1.5305955264    -0.9503084551    -1.8113017947
   14      H       0.3404913021    -0.8536988190    -2.0647986553
   15      H      -0.6025107605     0.7699230934    -2.1065238919
 ----------------------------------------------------------------
 Molecular Point Group                 C1    NOp =  1
 Largest Abelian Subgroup              C1    NOp =  1
 Nuclear Repulsion Energy =   453.2527702996 hartrees
 There are       35 alpha and       35 beta electrons
 Requested basis set is 6-31+G(d)
 There are 57 shells and 183 basis functions

 Total QAlloc Memory Limit   2000 MB
 Mega-Array Size        61 MB
 MEM_STATIC part        62 MB

                       Distance Matrix (Angstroms)
             C (  1)   O (  2)   O (  3)   C (  4)   C (  5)   O (  6)
   O (  2)  1.258097
   O (  3)  1.272741  2.145802
   C (  4)  1.466106  2.417482  2.363304
   C (  5)  2.770688  3.150037  3.688712  2.139971
   O (  6)  2.374565  3.544519  2.706636  1.291735  2.797249
   C (  7)  2.552217  2.946776  3.699628  1.470954  2.042361  2.401146
   O (  8)  3.671111  4.227407  4.672730  2.315601  2.737234  2.639833
   C (  9)  3.167314  2.972744  4.421469  2.649681  2.953620  3.767210
   H ( 10)  4.217894  3.990616  5.482365  3.557924  3.300274  4.559269
   H ( 11)  2.813906  2.209905  4.053790  2.836990  2.991795  4.105402
   H ( 12)  3.744638  3.552056  4.910899  3.259560  4.015347  4.259584
   H ( 13)  3.717031  4.207481  4.603199  2.710767  1.162641  3.028460
   H ( 14)  2.684847  3.268971  3.240174  2.344482  1.129133  2.683428
   H ( 15)  3.038568  2.949216  4.061078  2.809117  1.121873  3.738115
             C (  7)   O (  8)   C (  9)   H ( 10)   H ( 11)   H ( 12)
   O (  8)  1.306851
   C (  9)  1.470567  2.315863
   H ( 10)  2.160892  2.537496  1.166274
   H ( 11)  2.116409  3.253897  1.128093  1.922479
   H ( 12)  2.219702  2.738311  1.139755  1.733171  1.875644
   H ( 13)  2.284538  2.376377  3.312043  3.365826  3.680451  4.295350
   H ( 14)  2.863394  3.541052  3.895604  4.385089  3.791245  4.902840
   H ( 15)  2.461162  3.363714  2.793623  3.024836  2.521912  3.926740
             H ( 13)   H ( 14)
   H ( 14)  1.890651
   H ( 15)  1.976789  1.878069
 
 A cutoff of  1.0D-11 yielded   1555 shell pairs
 There are     16645 function pairs
 
 -------------------------------------------------------
 OpenMP Integral Computing Module                       
 Release: version 1.0, May 2013, Q-Chem Inc. Pittsburgh 
 -------------------------------------------------------
 Integral Job Info:
 Integral job number is                      11
 Integral operator is                         1
 short-range coefficients                     0
 long-range coefficients              100000000
 Omega coefficients                           0
 if combine SR and LR in K                    0
 Integral screening is                        0
 Integral computing path is                   2
 max size of driver memory is            800000
 size of driver memory is                593474
 size of scratch memory is              2260544
 max col of scratch BK array               1296
 max len of scratch array in speh3          155
 max len of scratch index in speh4           18
 max int batch size is                      520
 min int batch size is                       52
 fixed nKL is                                52
 max L of basis functions is                  2
 order of int derivative is                   0
 number of shells is                         57
 number of basis is                         183
 number of cartesian basis is               183
 number of contracted shell pairs          1555
 number of primitive shell pairs           5388
 maxK2 (contraction) of shell pair           36
 max number of K2 of shell pair               1
 max number of CS2 of shell pair            196
 max number of PS2 of shell pair           1176
 mem total for path MDJ                   44296
 -------------------------------------------------------
 Smallest overlap matrix eigenvalue = 1.40E-05
 Placing solute cavity origin at the center of mass
 Center of Onsager solute cavity (Angst): (   0.052110,  -0.034761,   0.034101)
 Solvent multipole matrices computed through 15th order
 Guess from superposition of atomic densities
 Warning:  Energy on first SCF cycle will be non-variational
 A restricted hybrid HF-DFT SCF calculation will be
 performed using Pulay DIIS extrapolation
 Kirkwood-Onsager solvation model will be applied
 Exchange:     0.2000 Hartree-Fock + 0.0800 Slater + 0.7200 B88
 Correlation:  0.1900 VWN1RPA + 0.8100 LYP
 Using SG-1 standard quadrature grid
 SCF converges when DIIS error is below 1.0E-08
 Kirkwood-Onsager SCRF: 
 Maximum multipole order     = 15
 Solvent dielectric constant = 78.3900
 Cavity radius               = 56.6917 bohr
 Born term (E_born)          = -0.03482849 a.u. = -21.8552 kcal/mol
 CPU 0.00 s  wall 0.00 s
 Inaccurate integrated density:
   Number of electrons =    70
   Numerical integral  =    67.999645847574
   Relative error      =    -2.8576487892 %
 CPU 4.93 s  wall 4.92 s
 ---------------------------------------
  Cycle       Energy         DIIS Error
 ---------------------------------------
    1    -496.1567401400      4.82E-02
 CPU 0.00 s  wall 0.00 s
 CPU 5.34 s  wall 5.34 s
    2    -494.5339076206      1.07E-02
 CPU 0.00 s  wall 0.00 s
 CPU 5.38 s  wall 5.37 s
    3    -489.1981484471      3.25E-02
 CPU 0.00 s  wall 0.00 s
 CPU 5.35 s  wall 5.35 s
    4    -494.7623806108      6.82E-03
 CPU 0.00 s  wall 0.00 s
 CPU 5.32 s  wall 5.32 s
    5    -494.9474047312      2.43E-03
 CPU 0.00 s  wall 0.00 s
 CPU 5.33 s  wall 5.33 s
    6    -494.9627515507      1.48E-03
 CPU 0.00 s  wall 0.00 s
 CPU 5.24 s  wall 5.24 s
    7    -494.9691034944      6.12E-04
 CPU 0.00 s  wall 0.00 s
 CPU 5.21 s  wall 5.21 s
    8    -494.9701847010      2.38E-04
 CPU 0.00 s  wall 0.00 s
 CPU 5.17 s  wall 5.17 s
    9    -494.9703887719      4.40E-05
 CPU 0.00 s  wall 0.00 s
 CPU 5.11 s  wall 5.11 s
   10    -494.9703950076      2.71E-05
 CPU 0.00 s  wall 0.00 s
 CPU 5.06 s  wall 5.06 s
   11    -494.9703972478      9.09E-06
 CPU 0.00 s  wall 0.00 s
 CPU 5.00 s  wall 5.00 s
   12    -494.9703974920      3.98E-06
 CPU 0.00 s  wall 0.00 s
 CPU 4.95 s  wall 4.95 s
   13    -494.9703975537      7.94E-07
 CPU 0.00 s  wall 0.00 s
 CPU 4.83 s  wall 4.83 s
   14    -494.9703975566      2.72E-07
 CPU 0.00 s  wall 0.00 s
 CPU 4.76 s  wall 4.76 s
   15    -494.9703975569      7.14E-08
 CPU 0.00 s  wall 0.00 s
 CPU 4.57 s  wall 4.57 s
   16    -494.9703975565      2.86E-08
 CPU 0.00 s  wall 0.00 s
 CPU 4.35 s  wall 4.35 s
   17    -494.9703975560      9.26E-09 Convergence criterion met
 ---------------------------------------
 SCF time:  CPU 204.57 s  wall 204.13 s
 SCF   energy in the final basis set = -494.9703975560
 Total energy in the final basis set = -494.9703975560
 
 --------------------------------------------------------------
 
                    Orbital Energies (a.u.)
 --------------------------------------------------------------
 
 Alpha MOs
 -- Occupied --
-18.791 -18.779 -18.778 -18.768  -9.954  -9.950  -9.946  -9.918
 -9.913  -0.715  -0.678  -0.643  -0.599  -0.456  -0.402  -0.350
 -0.261  -0.182  -0.152  -0.138  -0.125  -0.120  -0.116  -0.096
 -0.084  -0.069  -0.060  -0.037   0.021   0.044   0.073   0.076
  0.083   0.105   0.111
 -- Virtual --
  0.227   0.237   0.265   0.275   0.279   0.285   0.296   0.299
  0.307   0.317   0.330   0.336   0.338   0.345   0.355   0.365
  0.375   0.382   0.402   0.410   0.420   0.452   0.458   0.474
  0.488   0.498   0.501   0.528   0.536   0.542   0.557   0.561
  0.572   0.576   0.578   0.588   0.594   0.605   0.609   0.616
  0.631   0.637   0.645   0.665   0.670   0.684   0.697   0.716
  0.751   0.797   0.862   0.911   0.940   0.964   0.986   1.006
  1.021   1.061   1.072   1.092   1.125   1.149   1.198   1.209
  1.214   1.229   1.252   1.278   1.297   1.298   1.361   1.362
  1.383   1.433   1.446   1.517   1.551   1.562   1.578   1.597
  1.619   1.655   1.666   1.675   1.681   1.695   1.697   1.705
  1.733   1.752   1.761   1.812   1.841   1.898   1.905   1.982
  2.006   2.030   2.078   2.100   2.112   2.132   2.170   2.180
  2.199   2.214   2.220   2.280   2.303   2.316   2.335   2.370
  2.408   2.433   2.453   2.488   2.493   2.519   2.526   2.555
  2.583   2.588   2.685   2.712   2.764   2.777   2.810   2.899
  2.928   2.975   3.043   3.063   3.236   3.350   3.389   3.460
  3.478   3.602   3.616   4.473   4.525   4.594   4.621   4.741
  4.820   4.917   5.018   5.275
 --------------------------------------------------------------
 
          Ground-State Mulliken Net Atomic Charges

     Atom                 Charge (a.u.)
  ----------------------------------------
      1 C                     0.453137
      2 O                    -0.658073
      3 O                    -0.604873
      4 C                    -0.061576
      5 C                    -0.836857
      6 O                    -0.528942
      7 C                     0.438549
      8 O                    -0.574821
      9 C                    -0.790159
     10 H                     0.154621
     11 H                     0.236969
     12 H                     0.161996
     13 H                     0.212489
     14 H                     0.213533
     15 H                     0.184008
  ----------------------------------------
  Sum of atomic charges =    -2.000000

 -----------------------------------------------------------------
                    Cartesian Multipole Moments
 -----------------------------------------------------------------
    Charge (ESU x 10^10)
                -9.6064
    Dipole Moment (Debye)
         X      -2.9479      Y       2.8082      Z      -0.3006
       Tot       4.0825
    Quadrupole Moments (Debye-Ang)
        XX    -104.5161     XY      -7.1161     YY     -82.7361
        XZ      -0.5480     YZ       3.9448     ZZ     -68.7662
    Octopole Moments (Debye-Ang^2)
       XXX       1.2926    XXY       1.9333    XYY      -1.6986
       YYY      -9.5290    XXZ      -4.5877    XYZ       0.0848
       YYZ       0.1479    XZZ      16.1447    YZZ       0.4344
       ZZZ      43.3566
    Hexadecapole Moments (Debye-Ang^3)
      XXXX   -1169.6972   XXXY     -14.4814   XXYY    -273.0461
      XYYY      -0.3880   YYYY    -567.9113   XXXZ      -4.3461
      XXYZ       8.9250   XYYZ      -1.0058   YYYZ       2.8834
      XXZZ    -219.6962   XYZZ      -1.1590   YYZZ    -142.6028
      XZZZ     -33.8970   YZZZ     -11.5381   ZZZZ    -422.3198
 -----------------------------------------------------------------

 Begin NBO analysis for the ground state 


 *********************************** NBO 5.0 ***********************************
             N A T U R A L   A T O M I C   O R B I T A L   A N D
          N A T U R A L   B O N D   O R B I T A L   A N A L Y S I S
 *******************************************************************************
  (c) Copyright 1996-2002 Board of Regents of the University of Wisconsin System
      on behalf of the Theoretical Chemistry Institute.  All Rights Reserved.

          Cite this program as:

          NBO 5.0.  E. D. Glendening, J. K. Badenhoop, A. E. Reed,
          J. E. Carpenter, J. A. Bohmann, C. M. Morales, and F. Weinhold
          (Theoretical Chemistry Institute, University of Wisconsin,
          Madison, WI, 2001); http://www.chem.wisc.edu/~nbo5

       /PRINT  / : Print level set to  1
  This is a closed-shell NBO calculation

 Job title: Starting NBO analysis.                                          

 Storage needed:      168297 in NPA,      134749 in NBO (     7716700 available)


 NATURAL POPULATIONS:  Natural atomic orbital occupancies 
                                                          
  NAO Atom No lang   Type(AO)    Occupancy      Energy    
 ---------------------------------------------------------
   1    C  1  s      Cor( 1s)     1.99925      -9.82326
   2    C  1  s      Val( 2s)     0.79168       0.21468
   3    C  1  s      Ryd( 3s)     0.01109       1.21043
   4    C  1  s      Ryd( 4s)     0.00222       1.88844
   5    C  1  s      Ryd( 5s)     0.00027       3.09227
   6    C  1  px     Val( 2p)     0.87991       0.32258
   7    C  1  px     Ryd( 4p)     0.01308       1.14125
   8    C  1  px     Ryd( 3p)     0.00142       0.73767
   9    C  1  py     Val( 2p)     0.79361       0.33395
  10    C  1  py     Ryd( 4p)     0.01788       1.14820
  11    C  1  py     Ryd( 3p)     0.00090       0.63848
  12    C  1  pz     Val( 2p)     0.79790       0.23243
  13    C  1  pz     Ryd( 4p)     0.00287       0.99338
  14    C  1  pz     Ryd( 3p)     0.00047       0.48821
  15    C  1  dxy    Ryd( 3d)     0.00424       2.91269
  16    C  1  dxz    Ryd( 3d)     0.00148       2.36896
  17    C  1  dyz    Ryd( 3d)     0.00249       2.46998
  18    C  1  dx2y2  Ryd( 3d)     0.00377       2.88594
  19    C  1  dz2    Ryd( 3d)     0.00058       2.67009
 
  20    O  2  s      Cor( 1s)     1.99979     -18.53063
  21    O  2  s      Val( 2s)     1.72310      -0.54247
  22    O  2  s      Ryd( 3s)     0.00218       0.91269
  23    O  2  s      Ryd( 4s)     0.00023       2.42400
  24    O  2  s      Ryd( 5s)     0.00009       4.23521
  25    O  2  px     Val( 2p)     1.88944       0.08701
  26    O  2  px     Ryd( 3p)     0.00412       0.91941
  27    O  2  px     Ryd( 4p)     0.00017       1.51947
  28    O  2  py     Val( 2p)     1.56890       0.05542
  29    O  2  py     Ryd( 3p)     0.00110       0.97287
  30    O  2  py     Ryd( 4p)     0.00027       1.73525
  31    O  2  pz     Val( 2p)     1.61329       0.08684
  32    O  2  pz     Ryd( 3p)     0.00248       0.76173
  33    O  2  pz     Ryd( 4p)     0.00009       1.40886
  34    O  2  dxy    Ryd( 3d)     0.00264       2.51104
  35    O  2  dxz    Ryd( 3d)     0.00017       2.18603
  36    O  2  dyz    Ryd( 3d)     0.00284       2.41993
  37    O  2  dx2y2  Ryd( 3d)     0.00310       2.73566
  38    O  2  dz2    Ryd( 3d)     0.00101       2.39598
 
  39    O  3  s      Cor( 1s)     1.99981     -18.52469
  40    O  3  s      Val( 2s)     1.73381      -0.53195
  41    O  3  s      Ryd( 3s)     0.00176       1.24080
  42    O  3  s      Ryd( 4s)     0.00022       2.25420
  43    O  3  s      Ryd( 5s)     0.00006       4.05398
  44    O  3  px     Val( 2p)     1.60556       0.07859
  45    O  3  px     Ryd( 3p)     0.00150       0.98059
  46    O  3  px     Ryd( 4p)     0.00015       1.59260
  47    O  3  py     Val( 2p)     1.84737       0.09757
  48    O  3  py     Ryd( 3p)     0.00340       0.83035
  49    O  3  py     Ryd( 4p)     0.00013       1.54733
  50    O  3  pz     Val( 2p)     1.58841       0.10340
  51    O  3  pz     Ryd( 3p)     0.00238       0.76197
  52    O  3  pz     Ryd( 4p)     0.00003       1.42263
  53    O  3  dxy    Ryd( 3d)     0.00271       2.67350
  54    O  3  dxz    Ryd( 3d)     0.00229       2.36038
  55    O  3  dyz    Ryd( 3d)     0.00048       2.24401
  56    O  3  dx2y2  Ryd( 3d)     0.00274       2.62756
  57    O  3  dz2    Ryd( 3d)     0.00082       2.42273
 
  58    C  4  s      Cor( 1s)     1.99872      -9.81377
  59    C  4  s      Val( 2s)     0.90380       0.12929
  60    C  4  s      Ryd( 4s)     0.00815       1.77364
  61    C  4  s      Ryd( 5s)     0.00079       3.19082
  62    C  4  s      Ryd( 3s)     0.00018       1.08434
  63    C  4  px     Val( 2p)     1.05816       0.25159
  64    C  4  px     Ryd( 4p)     0.00534       1.27858
  65    C  4  px     Ryd( 3p)     0.00078       0.74358
  66    C  4  py     Val( 2p)     0.86962       0.27928
  67    C  4  py     Ryd( 4p)     0.01700       1.25396
  68    C  4  py     Ryd( 3p)     0.00092       0.65898
  69    C  4  pz     Val( 2p)     0.80566       0.20617
  70    C  4  pz     Ryd( 4p)     0.00262       1.05237
  71    C  4  pz     Ryd( 3p)     0.00120       0.56798
  72    C  4  dxy    Ryd( 3d)     0.00360       2.78131
  73    C  4  dxz    Ryd( 3d)     0.00072       2.24516
  74    C  4  dyz    Ryd( 3d)     0.00190       2.37316
  75    C  4  dx2y2  Ryd( 3d)     0.00139       2.80754
  76    C  4  dz2    Ryd( 3d)     0.00100       2.63593
 
  77    C  5  s      Cor( 1s)     1.99954      -9.81149
  78    C  5  s      Val( 2s)     1.26130      -0.06045
  79    C  5  s      Ryd( 3s)     0.01393       0.70953
  80    C  5  s      Ryd( 4s)     0.00063       1.52815
  81    C  5  s      Ryd( 5s)     0.00002       4.27813
  82    C  5  px     Val( 2p)     1.22919       0.18783
  83    C  5  px     Ryd( 3p)     0.00318       0.57995
  84    C  5  px     Ryd( 4p)     0.00038       0.85359
  85    C  5  py     Val( 2p)     1.22145       0.19923
  86    C  5  py     Ryd( 3p)     0.00413       0.58374
  87    C  5  py     Ryd( 4p)     0.00034       0.84327
  88    C  5  pz     Val( 2p)     1.08148       0.16984
  89    C  5  pz     Ryd( 3p)     0.01615       0.61011
  90    C  5  pz     Ryd( 4p)     0.00081       0.84288
  91    C  5  dxy    Ryd( 3d)     0.00131       2.39931
  92    C  5  dxz    Ryd( 3d)     0.00051       2.29681
  93    C  5  dyz    Ryd( 3d)     0.00074       2.19004
  94    C  5  dx2y2  Ryd( 3d)     0.00098       2.33455
  95    C  5  dz2    Ryd( 3d)     0.00074       2.36563
 
  96    O  6  s      Cor( 1s)     1.99981     -18.54217
  97    O  6  s      Val( 2s)     1.72136      -0.54667
  98    O  6  s      Ryd( 3s)     0.00152       1.50510
  99    O  6  s      Ryd( 4s)     0.00016       2.26179
 100    O  6  s      Ryd( 5s)     0.00007       3.97907
 101    O  6  px     Val( 2p)     1.89108       0.09017
 102    O  6  px     Ryd( 3p)     0.00331       1.02251
 103    O  6  px     Ryd( 4p)     0.00014       1.41075
 104    O  6  py     Val( 2p)     1.52923       0.06093
 105    O  6  py     Ryd( 3p)     0.00048       1.22501
 106    O  6  py     Ryd( 4p)     0.00019       1.37967
 107    O  6  pz     Val( 2p)     1.53824       0.09240
 108    O  6  pz     Ryd( 3p)     0.00241       0.94722
 109    O  6  pz     Ryd( 4p)     0.00012       1.30856
 110    O  6  dxy    Ryd( 3d)     0.00229       2.54298
 111    O  6  dxz    Ryd( 3d)     0.00011       2.18916
 112    O  6  dyz    Ryd( 3d)     0.00249       2.40685
 113    O  6  dx2y2  Ryd( 3d)     0.00257       2.75875
 114    O  6  dz2    Ryd( 3d)     0.00087       2.40984
 
 115    C  7  s      Cor( 1s)     1.99901      -9.82026
 116    C  7  s      Val( 2s)     0.87608       0.12192
 117    C  7  s      Ryd( 3s)     0.00597       1.52392
 118    C  7  s      Ryd( 4s)     0.00170       1.75624
 119    C  7  s      Ryd( 5s)     0.00010       3.98717
 120    C  7  px     Val( 2p)     0.95014       0.24968
 121    C  7  px     Ryd( 4p)     0.01229       1.05212
 122    C  7  px     Ryd( 3p)     0.00258       0.69797
 123    C  7  py     Val( 2p)     0.96042       0.23836
 124    C  7  py     Ryd( 4p)     0.01111       1.21938
 125    C  7  py     Ryd( 3p)     0.00084       0.68458
 126    C  7  pz     Val( 2p)     0.84544       0.20453
 127    C  7  pz     Ryd( 4p)     0.00504       1.03908
 128    C  7  pz     Ryd( 3p)     0.00155       0.59103
 129    C  7  dxy    Ryd( 3d)     0.00155       2.76380
 130    C  7  dxz    Ryd( 3d)     0.00187       2.34027
 131    C  7  dyz    Ryd( 3d)     0.00090       2.36469
 132    C  7  dx2y2  Ryd( 3d)     0.00323       2.69937
 133    C  7  dz2    Ryd( 3d)     0.00113       2.56655
 
 134    O  8  s      Cor( 1s)     1.99982     -18.52593
 135    O  8  s      Val( 2s)     1.72365      -0.55070
 136    O  8  s      Ryd( 3s)     0.00087       1.37731
 137    O  8  s      Ryd( 4s)     0.00031       2.27660
 138    O  8  s      Ryd( 5s)     0.00005       3.89471
 139    O  8  px     Val( 2p)     1.69344       0.07273
 140    O  8  px     Ryd( 3p)     0.00269       0.92366
 141    O  8  px     Ryd( 4p)     0.00023       1.49710
 142    O  8  py     Val( 2p)     1.75488       0.07877
 143    O  8  py     Ryd( 3p)     0.00288       0.90377
 144    O  8  py     Ryd( 4p)     0.00025       1.44360
 145    O  8  pz     Val( 2p)     1.62519       0.09083
 146    O  8  pz     Ryd( 3p)     0.00287       0.84479
 147    O  8  pz     Ryd( 4p)     0.00024       1.41133
 148    O  8  dxy    Ryd( 3d)     0.00234       2.69004
 149    O  8  dxz    Ryd( 3d)     0.00130       2.36835
 150    O  8  dyz    Ryd( 3d)     0.00128       2.31474
 151    O  8  dx2y2  Ryd( 3d)     0.00208       2.47891
 152    O  8  dz2    Ryd( 3d)     0.00092       2.41182
 
 153    C  9  s      Cor( 1s)     1.99922      -9.78202
 154    C  9  s      Val( 2s)     1.11666      -0.00200
 155    C  9  s      Ryd( 3s)     0.00176       1.00480
 156    C  9  s      Ryd( 4s)     0.00058       1.71155
 157    C  9  s      Ryd( 5s)     0.00003       3.89446
 158    C  9  px     Val( 2p)     1.22981       0.17792
 159    C  9  px     Ryd( 4p)     0.00347       0.76252
 160    C  9  px     Ryd( 3p)     0.00046       0.68096
 161    C  9  py     Val( 2p)     1.14135       0.18166
 162    C  9  py     Ryd( 3p)     0.00212       0.61459
 163    C  9  py     Ryd( 4p)     0.00083       0.66179
 164    C  9  pz     Val( 2p)     1.22129       0.17472
 165    C  9  pz     Ryd( 4p)     0.00188       0.77095
 166    C  9  pz     Ryd( 3p)     0.00051       0.63382
 167    C  9  dxy    Ryd( 3d)     0.00113       2.37088
 168    C  9  dxz    Ryd( 3d)     0.00087       2.27253
 169    C  9  dyz    Ryd( 3d)     0.00057       2.23030
 170    C  9  dx2y2  Ryd( 3d)     0.00104       2.41439
 171    C  9  dz2    Ryd( 3d)     0.00115       2.37898
 
 172    H 10  s      Val( 1s)     0.79877       0.27836
 173    H 10  s      Ryd( 2s)     0.00314       1.05844
 
 174    H 11  s      Val( 1s)     0.73171       0.36075
 175    H 11  s      Ryd( 2s)     0.00193       1.13247
 
 176    H 12  s      Val( 1s)     0.77550       0.29978
 177    H 12  s      Ryd( 2s)     0.00124       1.02901
 
 178    H 13  s      Val( 1s)     0.76202       0.32158
 179    H 13  s      Ryd( 2s)     0.00264       1.09621
 
 180    H 14  s      Val( 1s)     0.76104       0.34617
 181    H 14  s      Ryd( 2s)     0.00177       1.06825
 
 182    H 15  s      Val( 1s)     0.78899       0.33557
 183    H 15  s      Ryd( 2s)     0.00174       1.06739
 
   1 low occupancy (<1.9990e) core orbital  found on  C  4
 
     Population inversion found on atom  C  1
     Population inversion found on atom  C  4
     Population inversion found on atom  C  7
     Population inversion found on atom  C  9


 Summary of Natural Population Analysis:

                                     Natural Population
             Natural    ---------------------------------------------
  Atom No    Charge        Core      Valence    Rydberg      Total
 --------------------------------------------------------------------
    C  1    0.67489      1.99925     3.26310    0.06276     5.32511
    O  2   -0.81503      1.99979     6.79473    0.02050     8.81503
    O  3   -0.79364      1.99981     6.77515    0.01868     8.79364
    C  4    0.31846      1.99872     3.63723    0.04558     5.68154
    C  5   -0.83679      1.99954     4.79341    0.04384     6.83679
    O  6   -0.69645      1.99981     6.67992    0.01672     8.69645
    C  7    0.31905      1.99901     3.63208    0.04986     5.68095
    O  8   -0.81527      1.99982     6.79716    0.01829     8.81527
    C  9   -0.72474      1.99922     4.70911    0.01640     6.72474
    H 10    0.19810      0.00000     0.79877    0.00314     0.80190
    H 11    0.26636      0.00000     0.73171    0.00193     0.73364
    H 12    0.22326      0.00000     0.77550    0.00124     0.77674
    H 13    0.23535      0.00000     0.76202    0.00264     0.76465
    H 14    0.23719      0.00000     0.76104    0.00177     0.76281
    H 15    0.20926      0.00000     0.78899    0.00174     0.79074
 ====================================================================
 * Total * -2.00000     17.99498    51.69992    0.30510    70.00000

                                 Natural Population      
 --------------------------------------------------------
   Core                      17.99498 ( 99.9721% of  18)
   Valence                   51.69992 ( 99.4229% of  52)
   Natural Minimal Basis     69.69490 ( 99.5641% of  70)
   Natural Rydberg Basis      0.30510 (  0.4359% of  70)
 --------------------------------------------------------

    Atom No         Natural Electron Configuration
 ----------------------------------------------------------------------------
      C  1      [core]2s( 0.79)2p( 2.47)3s( 0.01)3d( 0.01)4p( 0.03)
      O  2      [core]2s( 1.72)2p( 5.07)3p( 0.01)3d( 0.01)
      O  3      [core]2s( 1.73)2p( 5.04)3p( 0.01)3d( 0.01)
      C  4      [core]2s( 0.90)2p( 2.73)4s( 0.01)3d( 0.01)4p( 0.02)
      C  5      [core]2s( 1.26)2p( 3.53)3s( 0.01)3p( 0.02)
      O  6      [core]2s( 1.72)2p( 4.96)3p( 0.01)3d( 0.01)
      C  7      [core]2s( 0.88)2p( 2.76)3s( 0.01)3d( 0.01)4p( 0.03)
      O  8      [core]2s( 1.72)2p( 5.07)3p( 0.01)3d( 0.01)
      C  9      [core]2s( 1.12)2p( 3.59)4p( 0.01)
      H 10            1s( 0.80)
      H 11            1s( 0.73)
      H 12            1s( 0.78)
      H 13            1s( 0.76)
      H 14            1s( 0.76)
      H 15            1s( 0.79)


 NATURAL BOND ORBITAL ANALYSIS:

                       Occupancies       Lewis Structure    Low   High
           Occ.    -------------------  -----------------   occ   occ
  Cycle   Thresh.   Lewis   Non-Lewis     CR  BD  3C  LP    (L)   (NL)   Dev
 =============================================================================
   1(1)    1.90    68.04194   1.95806      9  16   0  10     3      4    0.43
   2(2)    1.90    68.04194   1.95806      9  16   0  10     3      4    0.43
   3(1)    1.80    68.04390   1.95610      9  16   0  10     2      4    0.43
   4(2)    1.80    68.04390   1.95610      9  16   0  10     2      4    0.43
   5(1)    1.70    68.04390   1.95610      9  16   0  10     2      4    0.43
   6(2)    1.70    68.04390   1.95610      9  16   0  10     2      4    0.43
   7(1)    1.60    68.22757   1.77243      9  16   0  10     0      4    0.42
   8(2)    1.60    68.22757   1.77243      9  16   0  10     0      4    0.42
   9(1)    1.50    67.24975   2.75025      9  14   0  12     0      4    0.53
  10(2)    1.50    67.24975   2.75025      9  14   0  12     0      4    0.53
  11(1)    1.60    68.22757   1.77243      9  16   0  10     0      4    0.42
 -----------------------------------------------------------------------------

 Strongly delocalized structure accepted

           1 low occupancy (<1.9990e) core orbital  found on  C 4

 --------------------------------------------------------
   Core                     17.99495 ( 99.972% of  18)
   Valence Lewis            50.23262 ( 96.601% of  52)
  ==================       ============================
   Total Lewis              68.22757 ( 97.468% of  70)
  -----------------------------------------------------
   Valence non-Lewis         1.56351 (  2.234% of  70)
   Rydberg non-Lewis         0.20892 (  0.298% of  70)
  ==================       ============================
   Total non-Lewis           1.77243 (  2.532% of  70)
 --------------------------------------------------------


     (Occupancy)   Bond orbital/ Coefficients/ Hybrids
 -------------------------------------------------------------------------------
   1. (1.99526) BD ( 1) C  1- O  2       
               ( 34.85%)   0.5903* C  1 s( 31.86%)p 2.13( 67.98%)d 0.01(  0.17%)
                                        -0.0002  0.5627 -0.0433 -0.0021  0.0048
                                        -0.0092  0.0217 -0.0065  0.8105  0.0524
                                        -0.0033 -0.1398 -0.0064 -0.0006 -0.0036
                                         0.0003 -0.0108 -0.0367 -0.0136
               ( 65.15%)   0.8072* O  2 s( 38.48%)p 1.59( 61.27%)d 0.01(  0.25%)
                                         0.0000  0.6201 -0.0149 -0.0034 -0.0053
                                        -0.0638 -0.0056  0.0026 -0.7688  0.0214
                                         0.0012  0.1307 -0.0044  0.0001  0.0062
                                        -0.0014 -0.0140 -0.0428 -0.0213
   2. (1.99418) BD ( 1) C  1- O  3       
               ( 35.18%)   0.5932* C  1 s( 31.26%)p 2.19( 68.59%)d 0.00(  0.15%)
                                        -0.0001  0.5575 -0.0406 -0.0058  0.0049
                                         0.7340  0.0551 -0.0072 -0.3791 -0.0009
                                        -0.0026  0.0166  0.0051 -0.0017 -0.0312
                                         0.0032  0.0000  0.0183 -0.0149
               ( 64.82%)   0.8051* O  3 s( 36.76%)p 1.71( 63.01%)d 0.01(  0.23%)
                                         0.0000  0.6060 -0.0174 -0.0021 -0.0040
                                        -0.7251  0.0186  0.0002  0.2923 -0.0137
                                        -0.0020 -0.1352  0.0026  0.0002 -0.0317
                                         0.0096 -0.0033  0.0285 -0.0204
   3. (1.97698) BD ( 2) C  1- O  3       
               ( 25.08%)   0.5008* C  1 s(  0.12%)p99.99( 99.59%)d 2.35(  0.29%)
                                         0.0000  0.0344 -0.0071 -0.0005 -0.0019
                                         0.0272  0.0018  0.0026  0.1463 -0.0091
                                         0.0039  0.9853 -0.0478  0.0218  0.0061
                                         0.0429 -0.0298  0.0054  0.0106
               ( 74.92%)   0.8656* O  3 s(  0.15%)p99.99( 99.67%)d 1.20(  0.18%)
                                         0.0000  0.0385 -0.0014 -0.0003  0.0000
                                        -0.0743  0.0011 -0.0005  0.1880 -0.0014
                                         0.0002  0.9777 -0.0047  0.0017 -0.0091
                                        -0.0371  0.0160  0.0000 -0.0080
   4. (1.98293) BD ( 1) C  1- C  4       
               ( 47.98%)   0.6926* C  1 s( 36.98%)p 1.70( 62.94%)d 0.00(  0.08%)
                                        -0.0001 -0.6059 -0.0509 -0.0001  0.0048
                                         0.6733 -0.0136 -0.0164  0.4148  0.0027
                                        -0.0073 -0.0595 -0.0039 -0.0003 -0.0240
                                         0.0040 -0.0005 -0.0120  0.0066
               ( 52.02%)   0.7213* C  4 s( 34.11%)p 1.93( 65.81%)d 0.00(  0.08%)
                                         0.0003 -0.5838  0.0161 -0.0006  0.0027
                                        -0.6803 -0.0002  0.0007 -0.4357  0.0167
                                         0.0016  0.0718 -0.0063  0.0001 -0.0235
                                         0.0055  0.0012 -0.0066  0.0117
   5. (1.99006) BD ( 1) C  4- O  6       
               ( 36.66%)   0.6055* C  4 s( 30.16%)p 2.31( 69.72%)d 0.00(  0.12%)
                                         0.0003 -0.5453 -0.0648  0.0042 -0.0051
                                        -0.0696 -0.0167  0.0014  0.8108  0.0655
                                        -0.0002 -0.1731 -0.0190 -0.0005  0.0054
                                        -0.0016  0.0097  0.0292  0.0155
               ( 63.34%)   0.7959* O  6 s( 36.46%)p 1.74( 63.31%)d 0.01(  0.23%)
                                        -0.0001 -0.6035  0.0178 -0.0029  0.0016
                                         0.0858 -0.0009  0.0007 -0.7885  0.0112
                                         0.0038  0.0619 -0.0005 -0.0007  0.0082
                                        -0.0017  0.0100  0.0410  0.0206
   6. (1.97406) BD ( 2) C  4- O  6       
               ( 27.07%)   0.5203* C  4 s(  0.75%)p99.99( 99.01%)d 0.32(  0.24%)
                                         0.0002 -0.0853  0.0116  0.0102  0.0007
                                         0.0766 -0.0072 -0.0018  0.1575  0.0034
                                         0.0005  0.9781 -0.0441  0.0262 -0.0019
                                         0.0083 -0.0454  0.0082  0.0144
               ( 72.93%)   0.8540* O  6 s(  0.02%)p99.99( 99.81%)d 8.28(  0.17%)
                                         0.0000 -0.0142  0.0005 -0.0017 -0.0003
                                         0.0842 -0.0022 -0.0005  0.0979  0.0013
                                         0.0001  0.9906 -0.0089  0.0017  0.0030
                                        -0.0040  0.0395 -0.0043 -0.0091
   7. (1.96964) BD ( 1) C  4- C  7       
               ( 49.53%)   0.7038* C  4 s( 35.00%)p 1.86( 64.93%)d 0.00(  0.07%)
                                        -0.0001  0.5913 -0.0178  0.0013 -0.0020
                                        -0.7248 -0.0027  0.0074  0.3471 -0.0182
                                        -0.0053  0.0535  0.0146  0.0025 -0.0194
                                         0.0021  0.0043  0.0102 -0.0129
               ( 50.47%)   0.7104* C  7 s( 31.73%)p 2.15( 68.19%)d 0.00(  0.07%)
                                         0.0000  0.5628 -0.0232  0.0035 -0.0044
                                         0.7547 -0.0097 -0.0143 -0.2959  0.0046
                                         0.0052  0.1553  0.0188  0.0061 -0.0157
                                         0.0057  0.0004  0.0176 -0.0124
   8. (1.66632) BD ( 1) C  5- C  7       
               ( 61.50%)   0.7842* C  5 s( 19.29%)p 4.18( 80.69%)d 0.00(  0.01%)
                                         0.0012  0.4346 -0.0634  0.0037  0.0021
                                        -0.0158 -0.0255  0.0056  0.1414 -0.0157
                                        -0.0082  0.8834 -0.0720 -0.0086  0.0006
                                        -0.0018  0.0045  0.0005  0.0103
               ( 38.50%)   0.6205* C  7 s(  5.58%)p16.91( 94.33%)d 0.02(  0.09%)
                                         0.0003  0.2349 -0.0048 -0.0240  0.0002
                                         0.0048 -0.0224 -0.0004 -0.0478  0.0089
                                         0.0020 -0.9692  0.0186  0.0242 -0.0044
                                        -0.0239  0.0069 -0.0008  0.0175
   9. (1.98355) BD ( 1) C  5- H 13       
               ( 61.78%)   0.7860* C  5 s( 24.60%)p 3.06( 75.31%)d 0.00(  0.09%)
                                        -0.0001  0.4950  0.0299  0.0065 -0.0002
                                        -0.7108 -0.0153  0.0017 -0.4634 -0.0167
                                         0.0004 -0.1798  0.0105 -0.0107  0.0241
                                         0.0054  0.0044  0.0089 -0.0145
               ( 38.22%)   0.6183* H 13 s(100.00%)
                                         1.0000  0.0051
  10. (1.98439) BD ( 1) C  5- H 14       
               ( 62.02%)   0.7875* C  5 s( 30.59%)p 2.27( 69.32%)d 0.00(  0.10%)
                                         0.0000  0.5529  0.0100 -0.0057  0.0000
                                         0.6992  0.0242 -0.0031 -0.4070 -0.0168
                                        -0.0011 -0.1939 -0.0072 -0.0092 -0.0215
                                        -0.0143  0.0084  0.0114 -0.0101
               ( 37.98%)   0.6163* H 14 s(100.00%)
                                         1.0000  0.0039
  11. (1.98723) BD ( 1) C  5- H 15       
               ( 60.47%)   0.7776* C  5 s( 25.98%)p 2.85( 73.92%)d 0.00(  0.11%)
                                        -0.0001  0.5086  0.0323 -0.0044 -0.0011
                                        -0.0553  0.0091  0.0008  0.7722  0.0413
                                         0.0030 -0.3713  0.0007 -0.0130 -0.0014
                                        -0.0006 -0.0201 -0.0240 -0.0093
               ( 39.53%)   0.6287* H 15 s(100.00%)
                                         1.0000  0.0036
  12. (1.99227) BD ( 1) C  7- O  8       
               ( 36.62%)   0.6051* C  7 s( 26.93%)p 2.71( 72.94%)d 0.00(  0.13%)
                                         0.0000  0.5172  0.0416  0.0026  0.0019
                                        -0.6321 -0.0425 -0.0104 -0.5515 -0.0305
                                        -0.0075  0.1500  0.0174  0.0026  0.0302
                                        -0.0091 -0.0079  0.0042 -0.0165
               ( 63.38%)   0.7961* O  8 s( 35.88%)p 1.78( 63.90%)d 0.01(  0.22%)
                                         0.0000  0.5988 -0.0127  0.0081 -0.0025
                                         0.5825 -0.0180 -0.0064  0.5031 -0.0224
                                        -0.0070 -0.2135  0.0065  0.0013  0.0386
                                        -0.0150 -0.0128  0.0051 -0.0179
  13. (1.98996) BD ( 1) C  7- C  9       
               ( 49.80%)   0.7057* C  7 s( 35.75%)p 1.80( 64.19%)d 0.00(  0.07%)
                                        -0.0002  0.5979  0.0016  0.0014  0.0030
                                        -0.1632 -0.0094  0.0010  0.7771  0.0033
                                         0.0020  0.1060  0.0078 -0.0004 -0.0103
                                         0.0009  0.0070 -0.0196 -0.0115
               ( 50.20%)   0.7085* C  9 s( 30.43%)p 2.28( 69.50%)d 0.00(  0.08%)
                                         0.0001  0.5515 -0.0079  0.0015 -0.0014
                                         0.2183 -0.0029 -0.0020 -0.7943 -0.0206
                                         0.0043 -0.1263 -0.0018  0.0049 -0.0132
                                        -0.0028  0.0085 -0.0196 -0.0125
  14. (1.98413) BD ( 1) C  9- H 10       
               ( 60.32%)   0.7767* C  9 s( 20.83%)p 3.80( 79.08%)d 0.00(  0.09%)
                                         0.0001 -0.4564 -0.0081  0.0035 -0.0010
                                         0.7770 -0.0089 -0.0003 -0.1662 -0.0051
                                        -0.0066  0.3990 -0.0060  0.0040  0.0071
                                        -0.0178 -0.0001 -0.0207  0.0080
               ( 39.68%)   0.6299* H 10 s(100.00%)
                                        -1.0000 -0.0061
  15. (1.98569) BD ( 1) C  9- H 11       
               ( 64.03%)   0.8002* C  9 s( 25.13%)p 2.98( 74.78%)d 0.00(  0.09%)
                                        -0.0001  0.5012  0.0075  0.0020 -0.0008
                                         0.5781 -0.0001 -0.0035  0.5574  0.0011
                                         0.0031 -0.3207  0.0086  0.0015  0.0205
                                        -0.0159 -0.0105  0.0054 -0.0082
               ( 35.97%)   0.5998* H 11 s(100.00%)
                                         1.0000  0.0066
  16. (1.97516) BD ( 1) C  9- H 12       
               ( 61.07%)   0.7815* C  9 s( 23.61%)p 3.23( 76.30%)d 0.00(  0.08%)
                                        -0.0003  0.4859 -0.0024  0.0027  0.0014
                                        -0.1144  0.0024  0.0029  0.1706  0.0062
                                         0.0056  0.8490 -0.0038  0.0029 -0.0042
                                        -0.0101  0.0090 -0.0002  0.0252
               ( 38.93%)   0.6240* H 12 s(100.00%)
                                         1.0000  0.0024
  17. (1.99926) CR ( 1) C  1             s(100.00%)p 0.00(  0.00%)
                                         1.0000  0.0001  0.0000  0.0000  0.0000
                                         0.0002  0.0000  0.0000  0.0002  0.0000
                                         0.0000  0.0000  0.0000  0.0000  0.0000
                                         0.0000  0.0000  0.0000  0.0000
  18. (1.99979) CR ( 1) O  2             s(100.00%)p 0.00(  0.00%)
                                         1.0000  0.0003  0.0000  0.0000  0.0000
                                         0.0000  0.0000  0.0000  0.0002  0.0000
                                         0.0000  0.0000  0.0000  0.0000  0.0000
                                         0.0000  0.0000  0.0000  0.0000
  19. (1.99981) CR ( 1) O  3             s(100.00%)p 0.00(  0.00%)
                                         1.0000  0.0003  0.0000  0.0000  0.0000
                                         0.0002  0.0000  0.0000 -0.0001  0.0000
                                         0.0000  0.0000  0.0000  0.0000  0.0000
                                         0.0000  0.0000  0.0000  0.0000
  20. (1.99873) CR ( 1) C  4             s(100.00%)p 0.00(  0.00%)
                                         1.0000  0.0004  0.0000  0.0000  0.0000
                                         0.0002  0.0000  0.0000 -0.0002  0.0000
                                         0.0000 -0.0001  0.0000  0.0000  0.0000
                                         0.0000  0.0000  0.0000  0.0000
  21. (1.99951) CR ( 1) C  5             s(100.00%)p 0.00(  0.00%)
                                         1.0000 -0.0004  0.0001  0.0000  0.0000
                                        -0.0001  0.0000  0.0000 -0.0001  0.0000
                                         0.0000 -0.0011  0.0001  0.0000  0.0000
                                         0.0000  0.0000  0.0000  0.0000
  22. (1.99981) CR ( 1) O  6             s(100.00%)p 0.00(  0.00%)
                                         1.0000  0.0003  0.0000  0.0000  0.0000
                                         0.0000  0.0000  0.0000 -0.0003  0.0000
                                         0.0000  0.0000  0.0000  0.0000  0.0000
                                         0.0000  0.0000  0.0000  0.0000
  23. (1.99901) CR ( 1) C  7             s(100.00%)p 0.00(  0.00%)
                                         1.0000  0.0001  0.0000  0.0000  0.0000
                                        -0.0001  0.0000  0.0000  0.0002  0.0000
                                         0.0000  0.0003  0.0000  0.0000  0.0000
                                         0.0000  0.0000  0.0000  0.0000
  24. (1.99982) CR ( 1) O  8             s(100.00%)p 0.00(  0.00%)
                                         1.0000  0.0003  0.0000  0.0000  0.0000
                                        -0.0002  0.0000  0.0000 -0.0001  0.0000
                                         0.0000  0.0000  0.0000  0.0000  0.0000
                                         0.0000  0.0000  0.0000  0.0000
  25. (1.99922) CR ( 1) C  9             s(100.00%)p 0.00(  0.00%)
                                         1.0000  0.0001  0.0000  0.0000  0.0000
                                         0.0000  0.0000  0.0000  0.0002  0.0000
                                         0.0000  0.0002  0.0000  0.0000  0.0000
                                         0.0000  0.0000  0.0000  0.0000
  26. (1.97652) LP ( 1) O  2             s( 61.39%)p 0.63( 38.57%)d 0.00(  0.03%)
                                        -0.0004  0.7835  0.0084  0.0010  0.0028
                                         0.0950  0.0043 -0.0037  0.6046 -0.0051
                                        -0.0044 -0.1053  0.0016  0.0005 -0.0051
                                         0.0009  0.0052  0.0138  0.0088
  27. (1.89417) LP ( 2) O  2             s(  0.12%)p99.99( 99.74%)d 1.13(  0.14%)
                                         0.0000  0.0351 -0.0003  0.0010 -0.0007
                                        -0.9924 -0.0103 -0.0054  0.1033 -0.0018
                                         0.0022 -0.0420 -0.0018  0.0005  0.0357
                                        -0.0059  0.0020  0.0083 -0.0013
  28. (1.61689) LP ( 3) O  2             s(  0.00%)p 1.00( 99.82%)d 0.00(  0.18%)
                                         0.0000  0.0028  0.0020 -0.0007  0.0005
                                        -0.0237 -0.0013  0.0013  0.1714 -0.0014
                                         0.0012  0.9840  0.0046 -0.0017 -0.0001
                                        -0.0059 -0.0392  0.0068  0.0121
  29. (1.98195) LP ( 1) O  3             s( 62.91%)p 0.59( 37.06%)d 0.00(  0.02%)
                                        -0.0004  0.7931  0.0082  0.0004  0.0021
                                         0.5365 -0.0034  0.0031 -0.2806  0.0065
                                         0.0002  0.0636 -0.0007 -0.0001  0.0105
                                        -0.0025  0.0018 -0.0070  0.0090
  30. (1.90969) LP ( 2) O  3             s(  0.18%)p99.99( 99.68%)d 0.72(  0.13%)
                                         0.0000  0.0422  0.0076  0.0004 -0.0008
                                         0.4217  0.0033 -0.0022  0.8938  0.0106
                                        -0.0019 -0.1415 -0.0010  0.0004 -0.0231
                                         0.0032 -0.0052 -0.0273  0.0002
  31. (1.98241) LP ( 1) O  6             s( 63.39%)p 0.58( 36.59%)d 0.00(  0.02%)
                                        -0.0004  0.7961  0.0081 -0.0012  0.0008
                                         0.0206 -0.0005  0.0004 -0.6006  0.0028
                                        -0.0013  0.0690 -0.0006  0.0007  0.0009
                                         0.0003  0.0036  0.0113  0.0095
  32. (1.90105) LP ( 2) O  6             s(  0.14%)p99.99( 99.74%)d 0.89(  0.12%)
                                         0.0000  0.0369  0.0003  0.0005  0.0006
                                         0.9919  0.0067 -0.0003  0.0725  0.0003
                                         0.0003 -0.0910 -0.0021 -0.0007  0.0336
                                        -0.0056 -0.0034 -0.0066  0.0009
  33. (1.97942) LP ( 1) O  8             s( 63.73%)p 0.57( 36.25%)d 0.00(  0.02%)
                                        -0.0004  0.7983  0.0056 -0.0037  0.0013
                                        -0.4418  0.0039 -0.0006 -0.3996  0.0118
                                         0.0003  0.0865 -0.0032  0.0002 -0.0116
                                         0.0033  0.0033 -0.0002  0.0084
  34. (1.91666) LP ( 2) O  8             s(  0.03%)p99.99( 99.86%)d 4.19(  0.11%)
                                        -0.0001  0.0131  0.0088  0.0039 -0.0008
                                        -0.6527 -0.0112 -0.0020  0.7557  0.0099
                                        -0.0009  0.0362  0.0009 -0.0009  0.0021
                                         0.0067 -0.0057 -0.0320 -0.0024
  35. (1.64206) LP ( 3) O  8             s(  0.37%)p99.99( 99.49%)d 0.38(  0.14%)
                                         0.0000  0.0604 -0.0006 -0.0047 -0.0003
                                         0.1921  0.0055  0.0019  0.1184  0.0011
                                        -0.0005  0.9715  0.0076  0.0049  0.0089
                                         0.0232  0.0242  0.0019 -0.0140
  36. (0.01975) RY*( 1) C  1             s(  6.80%)p13.22( 89.85%)d 0.49(  3.36%)
                                         0.0000  0.0217  0.2561 -0.0404  0.0170
                                         0.0145  0.1571  0.0865  0.0623 -0.9115
                                        -0.0021 -0.0090  0.1767  0.0102  0.0559
                                        -0.0061  0.0403  0.1696  0.0002
  37. (0.01601) RY*( 2) C  1             s( 29.79%)p 2.00( 59.71%)d 0.35( 10.50%)
                                         0.0000  0.0482  0.5249  0.1213  0.0730
                                         0.0713 -0.7531  0.0994  0.0193  0.0633
                                         0.0997 -0.0004 -0.0197 -0.0162  0.2953
                                        -0.0626  0.0431  0.1093  0.0102
  38. (0.00663) RY*( 3) C  1             s( 28.57%)p 1.10( 31.37%)d 1.40( 40.06%)
                                         0.0000 -0.0164 -0.1267  0.5182 -0.0302
                                         0.0104  0.3492  0.3256  0.0111  0.1223
                                         0.2624 -0.0016 -0.0216 -0.0348  0.5282
                                        -0.1026  0.1149  0.3049  0.0702
  39. (0.00586) RY*( 4) C  1             s(  2.45%)p 3.89(  9.51%)d35.96( 88.04%)
                                         0.0000 -0.0050  0.1431  0.0473  0.0419
                                         0.0006  0.0971 -0.1110  0.0132  0.0742
                                        -0.0335  0.0605  0.1495 -0.2014 -0.1657
                                        -0.5216  0.7096 -0.1212 -0.2503
  40. (0.00291) RY*( 5) C  1             s(  9.88%)p 1.41( 13.90%)d 7.71( 76.21%)
                                         0.0000 -0.0086  0.3081 -0.0534 -0.0317
                                        -0.0086  0.1523 -0.1467  0.0344  0.2064
                                         0.2221 -0.0079 -0.0212 -0.0253 -0.4514
                                         0.0980 -0.0207  0.7405  0.0013
  41. (0.00185) RY*( 6) C  1             s( 35.83%)p 0.99( 35.62%)d 0.80( 28.55%)
                                         0.0000 -0.0153  0.5770  0.1238 -0.0991
                                         0.0297  0.3697 -0.1140  0.0069  0.2127
                                        -0.1215  0.0179  0.3739 -0.0737  0.0788
                                        -0.1275 -0.4075 -0.2952  0.0988
  42. (0.00090) RY*( 7) C  1             s( 15.49%)p 4.53( 70.23%)d 0.92( 14.28%)
                                         0.0000 -0.0021  0.3625  0.1464 -0.0455
                                         0.0152  0.2338 -0.2090 -0.0021 -0.0612
                                        -0.0607 -0.0400 -0.7686  0.0622  0.0552
                                         0.2395  0.1967 -0.2090  0.0048
  43. (0.00049) RY*( 8) C  1             s(  4.19%)p13.23( 55.45%)d 9.63( 40.36%)
                                         0.0000  0.0026 -0.1440 -0.0037  0.1454
                                        -0.0087 -0.0496 -0.2804 -0.0048 -0.1363
                                         0.0672  0.0035 -0.3320 -0.5831  0.0646
                                        -0.4751 -0.4040  0.1001  0.0219
  44. (0.00033) RY*( 9) C  1             s( 58.08%)p 0.59( 34.02%)d 0.14(  7.91%)
                                         0.0000  0.0180 -0.1604  0.6925 -0.2741
                                        -0.0155 -0.2115 -0.3213 -0.0018 -0.1236
                                        -0.4008  0.0023  0.0915  0.0880 -0.2312
                                        -0.0088 -0.0198  0.1047  0.1191
  45. (0.00014) RY*(10) C  1             s(  5.17%)p16.38( 84.66%)d 1.97( 10.17%)
                                         0.0000  0.0021 -0.0936  0.0996  0.1816
                                        -0.0069 -0.0239 -0.6669 -0.0086 -0.0620
                                         0.5731  0.0024  0.2406  0.1042  0.1742
                                         0.2136  0.0725 -0.1371 -0.0412
  46. (0.00004) RY*(11) C  1             s( 50.26%)p 0.32( 16.31%)d 0.67( 33.43%)
  47. (0.00005) RY*(12) C  1             s(  4.80%)p12.38( 59.41%)d 7.46( 35.80%)
  48. (0.00003) RY*(13) C  1             s( 27.67%)p 1.14( 31.61%)d 1.47( 40.72%)
  49. (0.00001) RY*(14) C  1             s( 20.81%)p 0.44(  9.26%)d 3.36( 69.93%)
  50. (0.00451) RY*( 1) O  2             s( 18.01%)p 4.53( 81.50%)d 0.03(  0.50%)
                                         0.0000  0.0026  0.4227 -0.0225 -0.0293
                                        -0.0096  0.8959  0.0058 -0.0154 -0.0348
                                        -0.0636  0.0025  0.0820 -0.0004  0.0333
                                        -0.0088  0.0107  0.0590 -0.0133
  51. (0.00252) RY*( 2) O  2             s(  0.00%)p 1.00( 98.09%)d 0.02(  1.90%)
                                         0.0000 -0.0003 -0.0042  0.0043 -0.0025
                                        -0.0011 -0.0789 -0.0069  0.0002  0.1973
                                         0.0103  0.0000  0.9664  0.0408 -0.0138
                                        -0.0769  0.1080 -0.0162 -0.0315
  52. (0.00122) RY*( 3) O  2             s( 70.13%)p 0.42( 29.36%)d 0.01(  0.50%)
                                         0.0000 -0.0009  0.8278 -0.0913 -0.0882
                                         0.0001 -0.3790  0.1143 -0.0056  0.3491
                                        -0.0691 -0.0010 -0.0970  0.0288 -0.0567
                                        -0.0003 -0.0054  0.0370  0.0202
  53. (0.00064) RY*( 4) O  2             s( 28.73%)p 2.04( 58.67%)d 0.44( 12.59%)
                                         0.0000  0.0054  0.2957  0.4396 -0.0815
                                         0.0135 -0.1347  0.0611 -0.0080 -0.5847
                                         0.4599 -0.0005  0.1009 -0.0335  0.3168
                                        -0.0823 -0.0118 -0.1355 -0.0170
  54. (0.00014) RY*( 5) O  2             s( 47.07%)p 0.84( 39.65%)d 0.28( 13.28%)
                                         0.0000 -0.0009 -0.0847  0.6808 -0.0079
                                         0.0048  0.0318  0.2810 -0.0014  0.2579
                                        -0.4546 -0.0007 -0.0328 -0.2053  0.2181
                                        -0.0364  0.0384 -0.0128  0.2869
  55. (0.00011) RY*( 6) O  2             s(  8.31%)p 9.84( 81.81%)d 1.19(  9.87%)
                                         0.0000  0.0077  0.0418 -0.1334  0.2520
                                        -0.0034 -0.0727  0.4072 -0.0207 -0.4202
                                        -0.3679  0.0079  0.0395  0.5771 -0.0425
                                        -0.1044  0.2042  0.1418  0.1557
  56. (0.00006) RY*( 7) O  2             s(  7.71%)p 6.18( 47.66%)d 5.79( 44.63%)
  57. (0.00007) RY*( 8) O  2             s( 10.83%)p 6.52( 70.64%)d 1.71( 18.53%)
  58. (0.00004) RY*( 9) O  2             s( 17.23%)p 0.09(  1.49%)d 4.72( 81.28%)
  59. (0.00002) RY*(10) O  2             s( 15.01%)p 1.14( 17.08%)d 4.53( 67.91%)
  60. (0.00001) RY*(11) O  2             s(  0.82%)p20.01( 16.48%)d99.99( 82.70%)
  61. (0.00000) RY*(12) O  2             s(  1.14%)p 5.59(  6.37%)d81.03( 92.48%)
  62. (0.00001) RY*(13) O  2             s(  3.11%)p15.38( 47.87%)d15.75( 49.02%)
  63. (0.00001) RY*(14) O  2             s( 71.90%)p 0.05(  3.91%)d 0.34( 24.19%)
  64. (0.00397) RY*( 1) O  3             s( 13.53%)p 6.36( 86.00%)d 0.03(  0.47%)
                                         0.0000  0.0006  0.3615 -0.0536 -0.0421
                                        -0.0169  0.4009 -0.0036 -0.0039  0.8355
                                        -0.0277  0.0011  0.0090 -0.0004  0.0565
                                        -0.0081  0.0032  0.0324  0.0196
  65. (0.00254) RY*( 2) O  3             s(  0.54%)p99.99( 98.10%)d 2.55(  1.37%)
                                         0.0000  0.0006  0.0684  0.0152 -0.0215
                                        -0.0022  0.0424 -0.0119 -0.0015 -0.0392
                                        -0.0116 -0.0085 -0.9881  0.0315 -0.0021
                                        -0.0480  0.0992 -0.0123 -0.0369
  66. (0.00091) RY*( 3) O  3             s( 51.21%)p 0.92( 47.14%)d 0.03(  1.65%)
                                         0.0000  0.0076  0.6416  0.3107 -0.0623
                                        -0.0194 -0.6417 -0.2043  0.0067  0.0476
                                         0.1189 -0.0008  0.0177 -0.0266 -0.0467
                                         0.0151  0.0021  0.1077  0.0501
  67. (0.00062) RY*( 4) O  3             s( 51.07%)p 0.75( 38.05%)d 0.21( 10.89%)
                                         0.0000 -0.0004  0.6166 -0.3594 -0.0355
                                        -0.0097  0.2821  0.1394 -0.0088 -0.4201
                                        -0.3119  0.0022  0.0657  0.0567 -0.1266
                                         0.0187 -0.0386 -0.2840  0.1018
  68. (0.00015) RY*( 5) O  3             s( 16.05%)p 4.22( 67.77%)d 1.01( 16.18%)
                                         0.0000  0.0064 -0.0353  0.3919 -0.0752
                                        -0.0183 -0.1799  0.6469  0.0116  0.0938
                                        -0.4437 -0.0001 -0.0094  0.1436  0.3461
                                        -0.0378 -0.0742 -0.1847  0.0308
  69. (0.00007) RY*( 6) O  3             s( 22.93%)p 0.82( 18.78%)d 2.54( 58.29%)
  70. (0.00002) RY*( 7) O  3             s( 10.67%)p 2.84( 30.27%)d 5.54( 59.06%)
  71. (0.00003) RY*( 8) O  3             s( 30.97%)p 1.58( 48.94%)d 0.65( 20.10%)
  72. (0.00001) RY*( 9) O  3             s(  1.40%)p70.03( 98.17%)d 0.31(  0.43%)
  73. (0.00001) RY*(10) O  3             s(  2.01%)p 8.97( 18.06%)d39.72( 79.93%)
  74. (0.00001) RY*(11) O  3             s(  1.04%)p 1.38(  1.44%)d93.38( 97.52%)
  75. (0.00001) RY*(12) O  3             s( 64.74%)p 0.18( 11.75%)d 0.36( 23.52%)
  76. (0.00001) RY*(13) O  3             s( 23.76%)p 1.06( 25.14%)d 2.15( 51.09%)
  77. (0.00001) RY*(14) O  3             s( 10.08%)p 1.09( 10.98%)d 7.83( 78.94%)
  78. (0.01610) RY*( 1) C  4             s( 15.26%)p 5.52( 84.20%)d 0.04(  0.54%)
                                         0.0000 -0.0597  0.3837  0.0421  0.0063
                                        -0.0053  0.1871 -0.0552  0.0641 -0.8803
                                        -0.0670 -0.0148  0.1293  0.0593  0.0128
                                         0.0273 -0.0538  0.0163  0.0366
  79. (0.00630) RY*( 2) C  4             s(  6.73%)p 7.67( 51.62%)d 6.19( 41.65%)
                                         0.0000  0.0212  0.2296 -0.1072 -0.0519
                                        -0.0154  0.4848 -0.0875  0.0047  0.2426
                                        -0.0120 -0.0477 -0.2616  0.3789  0.2216
                                         0.1601 -0.5126  0.0243  0.2800
  80. (0.00546) RY*( 3) C  4             s(  6.98%)p 8.32( 58.06%)d 5.01( 34.96%)
                                         0.0000  0.0108  0.2553  0.0526 -0.0412
                                         0.0115 -0.6518  0.1375 -0.0026  0.0064
                                        -0.2260 -0.0402 -0.1462  0.2502 -0.4058
                                         0.1925 -0.2714  0.2102  0.1734
  81. (0.00296) RY*( 4) C  4             s(  7.54%)p 4.50( 33.94%)d 7.76( 58.52%)
                                         0.0000 -0.0040  0.2595 -0.0695 -0.0566
                                         0.0236  0.4721  0.1918  0.0234  0.1973
                                         0.0295  0.0108  0.1773 -0.0858 -0.7405
                                         0.0789  0.1485  0.0400 -0.0828
  82. (0.00231) RY*( 5) C  4             s( 45.52%)p 0.66( 30.27%)d 0.53( 24.22%)
                                         0.0000 -0.0030  0.6565  0.0526 -0.1461
                                        -0.0094 -0.1059 -0.0703  0.0256  0.3235
                                        -0.2491  0.0157  0.3435  0.0296  0.3541
                                        -0.1861  0.2411  0.0821 -0.1316
  83. (0.00108) RY*( 6) C  4             s( 31.64%)p 1.27( 40.07%)d 0.89( 28.30%)
                                         0.0000  0.0028 -0.2525  0.4976 -0.0707
                                         0.0035  0.2320  0.4720 -0.0345 -0.0282
                                        -0.3438  0.0047  0.0149  0.0602  0.1587
                                         0.0418  0.0970  0.4931  0.0593
  84. (0.00084) RY*( 7) C  4             s( 19.37%)p 3.71( 71.85%)d 0.45(  8.78%)
                                         0.0000  0.0142  0.3720  0.2321  0.0357
                                        -0.0082 -0.0143  0.1615  0.0110 -0.0034
                                         0.3912 -0.0197 -0.7031 -0.2103  0.0682
                                        -0.0271  0.2791  0.0622 -0.0247
  85. (0.00050) RY*( 8) C  4             s( 14.39%)p 2.61( 37.63%)d 3.33( 47.98%)
                                         0.0000 -0.0066  0.0730  0.3715  0.0235
                                        -0.0006 -0.0830  0.3740  0.0192  0.0523
                                         0.3257  0.0003  0.3205  0.1327  0.1250
                                         0.4335 -0.0467 -0.5212  0.0489
  86. (0.00040) RY*( 9) C  4             s( 22.53%)p 0.16(  3.56%)d 3.28( 73.90%)
                                         0.0000  0.0013  0.0372  0.4730  0.0130
                                        -0.0024  0.0030 -0.0263  0.0057  0.0419
                                         0.0966 -0.0138  0.0830 -0.1294 -0.1696
                                        -0.6953 -0.4337 -0.1634  0.1093
  87. (0.00033) RY*(10) C  4             s(  3.58%)p18.20( 65.12%)d 8.75( 31.30%)
                                         0.0000  0.0088 -0.0838  0.1668  0.0297
                                         0.0051 -0.0206 -0.3137 -0.0148  0.0038
                                         0.4423  0.0047  0.1695  0.5725 -0.1054
                                        -0.1269  0.3654  0.2750  0.2769
  88. (0.00015) RY*(11) C  4             s( 22.65%)p 2.30( 52.03%)d 1.12( 25.32%)
                                         0.0000  0.0055 -0.0030  0.4379 -0.1863
                                         0.0005  0.0227 -0.6123 -0.0055  0.0645
                                         0.0167 -0.0025  0.0555 -0.3707 -0.0609
                                         0.4445 -0.1300  0.1781 -0.0570
  89. (0.00012) RY*(12) C  4             s(  8.96%)p 5.79( 51.91%)d 4.37( 39.13%)
                                         0.0000  0.0045 -0.0535  0.2777  0.0978
                                         0.0023  0.0906 -0.2476  0.0070  0.0096
                                        -0.5326 -0.0046 -0.2987  0.2766 -0.1451
                                        -0.0091  0.3274 -0.5127  0.0122
  90. (0.00006) RY*(13) C  4             s( 82.92%)p 0.09(  7.36%)d 0.12(  9.72%)
  91. (0.00003) RY*(14) C  4             s( 11.91%)p 1.08( 12.91%)d 6.31( 75.18%)
  92. (0.01251) RY*( 1) C  5             s( 39.24%)p 1.51( 59.38%)d 0.04(  1.38%)
                                         0.0000  0.0148  0.6257 -0.0115  0.0236
                                         0.0112  0.2007 -0.0342  0.0037  0.0987
                                         0.0197  0.1011  0.7171 -0.1327 -0.0217
                                        -0.0137 -0.0280  0.0060  0.1112
  93. (0.00151) RY*( 2) C  5             s( 62.59%)p 0.57( 35.56%)d 0.03(  1.85%)
                                         0.0000 -0.0205  0.6101  0.5031 -0.0095
                                         0.0185 -0.2811 -0.1673  0.0005 -0.0146
                                         0.1396  0.0069 -0.4659 -0.1069  0.0619
                                         0.0855  0.0811  0.0196 -0.0211
  94. (0.00109) RY*( 3) C  5             s(  0.43%)p99.99( 98.34%)d 2.84(  1.22%)
                                         0.0000 -0.0058  0.0193 -0.0396  0.0483
                                        -0.0084  0.3126  0.2573 -0.0433  0.8405
                                         0.2217  0.0161 -0.2304 -0.0930 -0.0319
                                         0.0574  0.0222 -0.0840 -0.0194
  95. (0.00088) RY*( 4) C  5             s(  4.71%)p17.23( 81.15%)d 3.00( 14.14%)
                                         0.0000 -0.0050  0.0246  0.2155  0.0006
                                        -0.0168  0.7985 -0.0051  0.0086 -0.3237
                                        -0.1701  0.0018 -0.1974 -0.0270  0.0247
                                         0.3622 -0.0792 -0.0483  0.0315
  96. (0.00037) RY*( 5) C  5             s(  3.91%)p19.25( 75.19%)d 5.35( 20.90%)
                                         0.0000 -0.0081  0.1320  0.1443  0.0275
                                        -0.0043 -0.0139  0.6606  0.0078 -0.0518
                                        -0.5470 -0.0109 -0.0932 -0.0669 -0.0572
                                        -0.3697  0.1890  0.0964  0.1551
  97. (0.00014) RY*( 6) C  5             s( 38.00%)p 0.53( 20.06%)d 1.10( 41.94%)
                                         0.0000 -0.0003 -0.2860  0.5459  0.0168
                                        -0.0202  0.2284 -0.2548  0.0069  0.0334
                                         0.1754 -0.0033  0.1472 -0.1716 -0.2326
                                        -0.5752  0.0884  0.0876 -0.1376
  98. (0.00011) RY*( 7) C  5             s(  4.76%)p17.30( 82.41%)d 2.69( 12.83%)
                                         0.0000  0.0238  0.0423  0.2120 -0.0189
                                        -0.0034  0.0611 -0.0924 -0.0032  0.1483
                                        -0.0197  0.0030  0.0331  0.8879 -0.0035
                                        -0.0833 -0.0221  0.0622  0.3420
  99. (0.00012) RY*( 8) C  5             s(  5.25%)p 3.72( 19.53%)d14.33( 75.22%)
                                         0.0000  0.0009 -0.0613  0.2158  0.0465
                                         0.0049 -0.1266  0.3309 -0.0151 -0.0878
                                         0.2326 -0.0047  0.0309 -0.0820 -0.1198
                                         0.0077 -0.8354 -0.0160  0.1992
 100. (0.00006) RY*( 9) C  5             s( 10.19%)p 4.61( 46.93%)d 4.21( 42.88%)
 101. (0.00003) RY*(10) C  5             s( 24.85%)p 1.39( 34.47%)d 1.64( 40.69%)
 102. (0.00002) RY*(11) C  5             s(  7.09%)p 0.38(  2.71%)d12.73( 90.21%)
 103. (0.00002) RY*(12) C  5             s(  4.69%)p 3.20( 15.01%)d17.13( 80.30%)
 104. (0.00001) RY*(13) C  5             s(  0.95%)p29.35( 27.78%)d75.29( 71.27%)
 105. (0.00000) RY*(14) C  5             s( 92.91%)p 0.02(  2.24%)d 0.05(  4.85%)
 106. (0.00359) RY*( 1) O  6             s(  3.55%)p27.04( 95.93%)d 0.15(  0.52%)
                                         0.0000 -0.0001  0.1867  0.0213 -0.0125
                                        -0.0054  0.8277 -0.0518  0.0011 -0.0549
                                        -0.0015 -0.0045 -0.5182  0.0050 -0.0490
                                        -0.0020  0.0503 -0.0070 -0.0149
 107. (0.00247) RY*( 2) O  6             s(  4.66%)p20.34( 94.87%)d 0.10(  0.47%)
                                         0.0000  0.0003  0.2157  0.0059 -0.0095
                                         0.0000 -0.5494  0.0448  0.0021 -0.1829
                                         0.0093 -0.0108 -0.7809 -0.0377  0.0258
                                        -0.0164  0.0538 -0.0107 -0.0267
 108. (0.00095) RY*( 3) O  6             s( 83.72%)p 0.16( 13.33%)d 0.04(  2.94%)
                                         0.0000  0.0043  0.9114  0.0800 -0.0157
                                        -0.0014 -0.0462 -0.1253  0.0181  0.0673
                                         0.2006 -0.0003  0.2642 -0.0243 -0.0079
                                        -0.0028  0.0361 -0.0854  0.1440
 109. (0.00035) RY*( 4) O  6             s( 11.45%)p 6.95( 79.51%)d 0.79(  9.05%)
                                         0.0000 -0.0008 -0.1505 -0.1108  0.2820
                                        -0.0017 -0.0362 -0.2267 -0.0067  0.6603
                                         0.4985  0.0007 -0.1767 -0.1631 -0.0165
                                         0.0096 -0.0904 -0.2858 -0.0172
 110. (0.00024) RY*( 5) O  6             s( 50.71%)p 0.88( 44.65%)d 0.09(  4.64%)
                                         0.0000 -0.0050 -0.1615  0.6766  0.1523
                                        -0.0036  0.0059 -0.4087 -0.0161 -0.4217
                                         0.2228  0.0056  0.0452 -0.2228  0.0973
                                        -0.0423 -0.0667 -0.1751 -0.0057
 111. (0.00011) RY*( 6) O  6             s( 14.54%)p 5.72( 83.11%)d 0.16(  2.35%)
                                         0.0000 -0.0014 -0.0243 -0.0417  0.3782
                                        -0.0005 -0.0133 -0.0905 -0.0025 -0.1688
                                         0.2079 -0.0031 -0.0047  0.8666  0.0383
                                         0.1170  0.0584 -0.0621  0.0322
 112. (0.00008) RY*( 7) O  6             s(  2.90%)p28.10( 81.62%)d 5.33( 15.48%)
 113. (0.00005) RY*( 8) O  6             s( 36.72%)p 0.94( 34.56%)d 0.78( 28.72%)
 114. (0.00002) RY*( 9) O  6             s( 71.99%)p 0.32( 23.36%)d 0.06(  4.64%)
 115. (0.00001) RY*(10) O  6             s( 14.06%)p 1.20( 16.81%)d 4.92( 69.13%)
 116. (0.00002) RY*(11) O  6             s(  0.97%)p 1.27(  1.22%)d99.99( 97.81%)
 117. (0.00002) RY*(12) O  6             s(  1.73%)p 0.84(  1.45%)d56.07( 96.82%)
 118. (0.00001) RY*(13) O  6             s(  2.28%)p12.35( 28.09%)d30.61( 69.64%)
 119. (0.00000) RY*(14) O  6             s(  0.72%)p 2.82(  2.03%)d99.99( 97.25%)
 120. (0.01631) RY*( 1) C  7             s( 13.98%)p 6.04( 84.41%)d 0.12(  1.62%)
                                         0.0000 -0.0395  0.3708 -0.0171 -0.0211
                                         0.0432 -0.6632 -0.0578  0.0301 -0.6034
                                        -0.0577  0.0053  0.1552  0.0815 -0.0580
                                        -0.0621 -0.0222 -0.0666  0.0633
 121. (0.01012) RY*( 2) C  7             s(  5.15%)p15.33( 78.97%)d 3.08( 15.88%)
                                         0.0000  0.0025 -0.1342  0.1830  0.0015
                                        -0.0122  0.4733 -0.4023  0.0113 -0.5951
                                         0.0844 -0.0208  0.1976 -0.0534 -0.0227
                                         0.0955  0.1102  0.3595 -0.0882
 122. (0.00623) RY*( 3) C  7             s(  1.60%)p32.66( 52.33%)d28.75( 46.07%)
                                         0.0000 -0.0166 -0.0712  0.0992 -0.0289
                                        -0.0007 -0.1681  0.0557 -0.0023  0.1320
                                        -0.1368 -0.0201  0.5098 -0.4421  0.1024
                                         0.5237  0.2087 -0.1657 -0.3239
 123. (0.00364) RY*( 4) C  7             s( 19.54%)p 2.30( 44.91%)d 1.82( 35.55%)
                                         0.0000 -0.0115 -0.0274  0.4409 -0.0090
                                        -0.0132 -0.4333 -0.2736  0.0136  0.3324
                                         0.1911 -0.0079 -0.1824 -0.0760 -0.0983
                                         0.0355  0.0293  0.5831 -0.0610
 124. (0.00235) RY*( 5) C  7             s( 15.22%)p 4.28( 65.12%)d 1.29( 19.66%)
                                         0.0000  0.0213  0.3864  0.0488  0.0052
                                         0.0227  0.1230 -0.0203 -0.0034 -0.1692
                                         0.0259 -0.0379 -0.6703 -0.3939  0.0746
                                         0.3173 -0.1488 -0.1322 -0.2253
 125. (0.00174) RY*( 6) C  7             s( 66.33%)p 0.43( 28.83%)d 0.07(  4.85%)
                                         0.0000 -0.0045  0.8126  0.0284 -0.0466
                                         0.0232  0.2738 -0.1654  0.0097  0.3003
                                        -0.0387  0.0019  0.2974  0.0723  0.0836
                                        -0.0957  0.1263  0.1069  0.0702
 126. (0.00095) RY*( 7) C  7             s( 42.85%)p 1.11( 47.57%)d 0.22(  9.58%)
                                         0.0000  0.0096  0.0271  0.6538 -0.0134
                                         0.0139  0.0973  0.5031  0.0062 -0.1242
                                        -0.4091 -0.0152 -0.0132  0.1723  0.2778
                                        -0.0257 -0.0851  0.0954  0.0409
 127. (0.00051) RY*( 8) C  7             s(  2.22%)p 3.79(  8.39%)d40.31( 89.39%)
                                         0.0000  0.0102  0.0924  0.1058  0.0483
                                        -0.0255  0.1093  0.2131 -0.0229 -0.0027
                                        -0.1554 -0.0003 -0.0128  0.0323 -0.8984
                                         0.2329  0.1054  0.0035  0.1464
 128. (0.00038) RY*( 9) C  7             s(  2.06%)p30.48( 62.83%)d17.03( 35.11%)
                                         0.0000  0.0083  0.0693  0.0744  0.1011
                                         0.0020  0.0110  0.4147 -0.0087 -0.1087
                                         0.6650  0.0041 -0.0426  0.0180  0.1301
                                         0.1046  0.5314 -0.0051  0.2019
 129. (0.00026) RY*(10) C  7             s(  7.33%)p 6.22( 45.61%)d 6.42( 47.06%)
                                         0.0000 -0.0070  0.0206  0.2678 -0.0331
                                        -0.0049  0.0280 -0.1678 -0.0030  0.0584
                                         0.3923 -0.0067  0.1208  0.5051 -0.0166
                                         0.4019 -0.4402 -0.3313 -0.0730
 130. (0.00018) RY*(11) C  7             s( 23.90%)p 0.37(  8.84%)d 2.81( 67.26%)
                                         0.0000 -0.0068 -0.0297  0.4196 -0.2490
                                         0.0011  0.0382 -0.1274 -0.0130  0.0028
                                         0.1705 -0.0055  0.0159 -0.2028 -0.2038
                                        -0.5562  0.1480 -0.4700 -0.2808
 131. (0.00010) RY*(12) C  7             s( 17.82%)p 1.84( 32.73%)d 2.78( 49.45%)
                                         0.0000  0.0064 -0.0864  0.2119  0.3546
                                         0.0022 -0.0466 -0.4555 -0.0090  0.0581
                                        -0.2747  0.0040 -0.1808  0.0780  0.1226
                                         0.1323  0.3857 -0.3579  0.4303
 132. (0.00002) RY*(13) C  7             s( 71.26%)p 0.03(  1.90%)d 0.38( 26.84%)
 133. (0.00002) RY*(14) C  7             s( 10.76%)p 3.52( 37.92%)d 4.77( 51.31%)
 134. (0.00367) RY*( 1) O  8             s(  1.37%)p70.66( 97.04%)d 1.15(  1.58%)
                                         0.0000 -0.0025  0.1026  0.0561  0.0065
                                         0.0115 -0.7070  0.0615 -0.0038  0.5451
                                        -0.0820  0.0028 -0.4017  0.0373  0.0005
                                         0.0294  0.0356  0.1151 -0.0208
 135. (0.00284) RY*( 2) O  8             s(  0.08%)p99.99( 98.90%)d12.42(  1.02%)
                                         0.0000 -0.0002  0.0243 -0.0061  0.0140
                                         0.0066 -0.1131  0.0455 -0.0010  0.4775
                                        -0.0226 -0.0046  0.8625 -0.0411 -0.0233
                                        -0.0530 -0.0351  0.0425  0.0616
 136. (0.00057) RY*( 3) O  8             s( 76.49%)p 0.28( 21.15%)d 0.03(  2.36%)
                                         0.0000  0.0042  0.8492  0.2011 -0.0571
                                         0.0151  0.2158  0.3023  0.0028  0.0539
[...]
 O         -0.192  0.155  0.049    0.330 -0.098  0.002   -0.047  0.211  0.131
 C          0.042 -0.007 -0.007   -0.056  0.178  0.069   -0.219  0.074 -0.009
 H          0.127  0.034  0.105   -0.155  0.071 -0.060   -0.431 -0.116 -0.290
 H          0.116 -0.049 -0.126   -0.147  0.409  0.194   -0.402  0.362  0.256
 H          0.002 -0.005  0.001   -0.144  0.097 -0.030   -0.288  0.004 -0.096
 H         -0.061 -0.057  0.345    0.100  0.082 -0.318    0.053 -0.046  0.017
 H         -0.001  0.068  0.133    0.095 -0.015 -0.239    0.090  0.052 -0.121
 H          0.051  0.216  0.001    0.042 -0.267  0.100    0.071 -0.070  0.053
 TransDip  -0.070  0.004  0.038    0.069  0.032  0.008    0.075 -0.028 -0.088

 Mode:                13                     14                     15
 Frequency:       481.09                 554.13                 641.55
 Force Cnst:      0.3365                 0.6167                 0.9275
 Red. Mass:       2.4677                 3.4086                 3.8248
 IR Active:          YES                    YES                    YES
 IR Intens:       56.612                 74.702                 16.146
 Raman Active:       YES                    YES                    YES
               X      Y      Z        X      Y      Z        X      Y      Z
 C          0.007 -0.022  0.063   -0.037  0.080 -0.032   -0.024 -0.037 -0.047
 O          0.075  0.001  0.022   -0.075  0.009 -0.063    0.022  0.068 -0.025
 O         -0.059 -0.061  0.005    0.104  0.082 -0.013    0.065 -0.003  0.048
 C         -0.025  0.079 -0.028   -0.038 -0.161  0.181   -0.081 -0.113 -0.039
 C          0.042  0.043 -0.098   -0.030  0.005 -0.046   -0.034 -0.028 -0.029
 O         -0.024  0.034  0.069   -0.006  0.017 -0.082    0.086 -0.113 -0.089
 C         -0.067 -0.141  0.178    0.045 -0.174  0.181   -0.127  0.016  0.104
 O         -0.019  0.069 -0.103    0.077  0.116  0.003    0.002 -0.104 -0.113
 C          0.017 -0.016 -0.044   -0.030 -0.069 -0.050   -0.001  0.279  0.190
 H          0.078  0.214  0.032   -0.079  0.053 -0.115    0.108  0.515  0.334
 H          0.074  0.114 -0.149   -0.055  0.271 -0.050    0.098  0.166  0.055
 H         -0.007 -0.195 -0.280   -0.134 -0.330 -0.378    0.108  0.243  0.136
 H          0.151 -0.100 -0.015   -0.107 -0.091  0.263   -0.045 -0.222  0.352
 H          0.251  0.275 -0.555   -0.124 -0.034  0.275    0.049  0.153 -0.074
 H          0.195 -0.308  0.240   -0.025  0.381 -0.321    0.089  0.159 -0.102
 TransDip   0.192 -0.114  0.092   -0.088 -0.129  0.229   -0.113 -0.010  0.060

 Mode:                16                     17                     18
 Frequency:       761.77                 768.07                 814.94
 Force Cnst:      0.9705                 0.6283                 2.8928
 Red. Mass:       2.8386                 1.8077                 7.3928
 IR Active:          YES                    YES                    YES
 IR Intens:       25.650                 40.832                 10.363
 Raman Active:       YES                    YES                    YES
               X      Y      Z        X      Y      Z        X      Y      Z
 C          0.204 -0.043 -0.134    0.114  0.049  0.006   -0.039  0.384  0.451
 O         -0.023 -0.089  0.114    0.005 -0.090  0.066    0.063 -0.203  0.013
 O         -0.093  0.092 -0.047   -0.062  0.063 -0.068   -0.019  0.068 -0.212
 C          0.098 -0.003  0.015    0.042  0.031 -0.004   -0.008 -0.104 -0.073
 C          0.082  0.030  0.013   -0.066 -0.089 -0.052    0.042  0.065  0.038
 O          0.001  0.000 -0.005   -0.030  0.011  0.039   -0.042 -0.138 -0.130
 C         -0.096 -0.043  0.076    0.016  0.014 -0.035    0.007 -0.076 -0.025
 O         -0.069  0.014 -0.063   -0.008 -0.010  0.015   -0.018 -0.013 -0.026
 C         -0.031  0.022  0.040    0.002  0.009 -0.005    0.032  0.100  0.066
 H          0.063  0.339  0.161    0.002 -0.044 -0.002    0.005  0.030  0.033
 H          0.070 -0.053 -0.113   -0.002 -0.007  0.009   -0.027  0.208  0.150
 H          0.090 -0.082 -0.112   -0.003  0.050  0.052   -0.035  0.102  0.073
 H         -0.008  0.313 -0.371   -0.073 -0.432  0.611    0.063  0.252 -0.358
 H         -0.192 -0.396  0.442    0.120  0.309 -0.177   -0.065 -0.182  0.088
 H         -0.144  0.039 -0.109    0.173  0.357 -0.256   -0.110 -0.286  0.219
 TransDip   0.149  0.039 -0.049    0.179  0.036 -0.092    0.036  0.032  0.091

 Mode:                19                     20                     21
 Frequency:       839.90                 984.06                1027.95
 Force Cnst:      0.8571                 1.3569                 1.2582
 Red. Mass:       2.0622                 2.3782                 2.0209
 IR Active:          YES                    YES                    YES
 IR Intens:       21.848                 44.048                 32.505
 Raman Active:       YES                    YES                    YES
               X      Y      Z        X      Y      Z        X      Y      Z
 C          0.084 -0.012 -0.086    0.001  0.020  0.030   -0.041  0.016  0.037
 O         -0.022 -0.022  0.034    0.018 -0.021  0.017   -0.044  0.029 -0.056
 O         -0.007  0.067 -0.016    0.000  0.024 -0.023    0.009 -0.047  0.023
 C         -0.012 -0.146  0.166   -0.079 -0.009 -0.038    0.226 -0.008  0.014
 C         -0.071  0.084  0.014   -0.013  0.016 -0.010    0.003  0.064 -0.090
 O          0.013  0.017 -0.066    0.034 -0.063 -0.041   -0.044  0.013  0.010
 C          0.016  0.016 -0.051   -0.032  0.182  0.087    0.014 -0.034 -0.054
 O         -0.012 -0.007  0.015    0.118  0.014  0.056   -0.037  0.014  0.006
 C          0.003  0.020 -0.013   -0.146 -0.107 -0.070   -0.057  0.017  0.019
 H         -0.008 -0.122 -0.025    0.136  0.341  0.273    0.079  0.246  0.186
 H         -0.019 -0.047  0.031    0.135 -0.588 -0.467    0.052 -0.121 -0.128
 H         -0.026  0.119  0.120    0.215 -0.102 -0.093    0.107  0.011 -0.007
 H          0.105 -0.056 -0.035    0.000 -0.057  0.092    0.035 -0.326  0.506
 H          0.115  0.246 -0.445   -0.007  0.021 -0.011   -0.190 -0.246  0.313
 H          0.025 -0.539  0.531    0.001 -0.090  0.087    0.002 -0.363  0.274
 TransDip  -0.013 -0.054  0.139   -0.149  0.150  0.019    0.126 -0.132 -0.007

 Mode:                22                     23                     24
 Frequency:      1036.26                1040.38                1221.24
 Force Cnst:      0.9860                 0.9939                 4.0303
 Red. Mass:       1.5585                 1.5585                 4.5865
 IR Active:          YES                    YES                    YES
 IR Intens:       44.050                 36.248                 89.482
 Raman Active:       YES                    YES                    YES
               X      Y      Z        X      Y      Z        X      Y      Z
 C         -0.024  0.014  0.017    0.018 -0.014 -0.013    0.006  0.037  0.041
 O         -0.019  0.012 -0.026    0.017 -0.011  0.023   -0.045  0.017 -0.048
 O          0.005 -0.020  0.008   -0.003  0.020 -0.011   -0.001 -0.040  0.013
 C          0.121 -0.025  0.044   -0.099  0.021 -0.027    0.249 -0.027  0.053
 C         -0.034 -0.043  0.067    0.001  0.036 -0.030   -0.016 -0.012 -0.004
 O         -0.022 -0.001 -0.012    0.017 -0.003  0.007   -0.012 -0.071 -0.064
 C          0.030  0.019 -0.088    0.001  0.088 -0.072   -0.174  0.317  0.239
 O         -0.028  0.000  0.007    0.007 -0.030  0.004   -0.068 -0.061 -0.077
 C         -0.046 -0.042  0.083    0.054 -0.075  0.104    0.139 -0.075 -0.054
 H          0.019  0.465  0.152   -0.123  0.194 -0.144   -0.177 -0.498 -0.440
 H          0.080  0.129 -0.133    0.018  0.491  0.080   -0.055  0.097  0.195
 H          0.102 -0.278 -0.261   -0.077 -0.473 -0.434   -0.300 -0.167 -0.132
 H          0.001  0.181 -0.346    0.011 -0.142  0.239    0.002 -0.005 -0.026
 H          0.194  0.306 -0.378   -0.100 -0.135  0.159    0.044  0.112 -0.050
 H          0.047  0.252 -0.150   -0.027 -0.224  0.173    0.065  0.067 -0.017
 TransDip   0.129  0.116 -0.123   -0.176  0.008  0.078    0.172  0.250  0.005

 Mode:                25                     26                     27
 Frequency:      1362.72                1382.72                1438.22
 Force Cnst:     13.6880                 1.4239                 1.3328
 Red. Mass:      12.5106                 1.2640                 1.0936
 IR Active:          YES                    YES                    YES
 IR Intens:      151.337                 18.765                  3.332
 Raman Active:       YES                    YES                    YES
               X      Y      Z        X      Y      Z        X      Y      Z
 C          0.622  0.373  0.036   -0.013 -0.007 -0.004    0.005 -0.007  0.006
 O         -0.274  0.122 -0.216    0.006 -0.003  0.005   -0.004  0.002 -0.002
 O         -0.117 -0.381  0.203    0.002  0.007 -0.004    0.000  0.002 -0.001
 C         -0.200  0.069  0.026    0.004 -0.002  0.001   -0.007  0.023  0.008
 C          0.011 -0.001  0.012    0.002  0.000 -0.003   -0.071  0.031  0.019
 O          0.024 -0.055 -0.042    0.001 -0.003 -0.002    0.002 -0.012 -0.010
 C          0.008 -0.029 -0.037   -0.008  0.022  0.018   -0.010 -0.007 -0.003
 O          0.050  0.003  0.024    0.000 -0.002 -0.002    0.008  0.002  0.004
 C         -0.001 -0.022 -0.008    0.013 -0.124 -0.080   -0.001 -0.003  0.002
 H          0.033  0.184  0.039    0.140  0.519  0.116   -0.021 -0.009 -0.025
 H         -0.044  0.065  0.057   -0.201  0.493  0.209    0.021  0.038 -0.036
 H         -0.067  0.057  0.086   -0.062  0.324  0.487    0.031  0.020  0.030
 H         -0.034  0.034  0.015   -0.009 -0.001  0.016    0.580 -0.391 -0.300
 H          0.002 -0.050 -0.038   -0.004 -0.006  0.010   -0.173 -0.270  0.009
 H         -0.103 -0.013 -0.031   -0.007 -0.011  0.000    0.469  0.274  0.096
 TransDip   0.290  0.267  0.001   -0.042  0.081  0.104   -0.013 -0.012  0.056

 Mode:                28                     29                     30
 Frequency:      1467.32                1487.32                1491.30
 Force Cnst:      1.3680                 1.4229                 1.3909
 Red. Mass:       1.0785                 1.0917                 1.0615
 IR Active:          YES                    YES                    YES
 IR Intens:        8.689                 40.236                  9.612
 Raman Active:       YES                    YES                    YES
               X      Y      Z        X      Y      Z        X      Y      Z
 C          0.006  0.005 -0.001    0.012 -0.010  0.011   -0.005  0.004 -0.009
 O         -0.002  0.000 -0.002   -0.008  0.005 -0.007    0.004 -0.002  0.004
 O         -0.001 -0.004  0.002    0.000  0.002 -0.003    0.000 -0.002  0.002
 C         -0.009  0.000 -0.004   -0.003  0.002  0.004   -0.001  0.018  0.012
 C         -0.029 -0.050 -0.050    0.010  0.007  0.009   -0.005  0.001  0.003
 O          0.002  0.001  0.001    0.001 -0.004 -0.003    0.001 -0.011 -0.009
 C          0.012 -0.001  0.003    0.023  0.021  0.028   -0.001  0.014 -0.009
 O         -0.008 -0.001 -0.004   -0.025 -0.008 -0.016   -0.001 -0.003  0.001
 C         -0.012 -0.003  0.001   -0.059 -0.016 -0.001   -0.005  0.023 -0.055
 H          0.017 -0.065  0.028    0.066 -0.413  0.131    0.409 -0.143  0.507
 H          0.009  0.086 -0.038    0.057  0.478 -0.212   -0.359 -0.070  0.534
 H          0.128  0.012  0.005    0.697  0.054  0.024    0.051 -0.188 -0.301
 H         -0.167  0.166 -0.170    0.006 -0.012  0.044    0.030 -0.022 -0.014
 H          0.038  0.490  0.561   -0.002 -0.084 -0.096   -0.008 -0.011 -0.005
 H          0.498 -0.055  0.268   -0.114 -0.006 -0.053    0.023  0.015  0.009
 TransDip   0.060  0.037  0.062    0.161 -0.001  0.124   -0.067  0.035  0.065

 Mode:                31                     32                     33
 Frequency:      1516.56                1601.18                1610.77
 Force Cnst:     13.9611                12.5910                17.8003
 Red. Mass:      10.3027                 8.3354                11.6443
 IR Active:          YES                    YES                    YES
 IR Intens:      361.617                540.598                521.871
 Raman Active:       YES                    YES                    YES
               X      Y      Z        X      Y      Z        X      Y      Z
 C         -0.076 -0.038 -0.060   -0.014  0.015 -0.018   -0.287  0.573 -0.513
 O          0.045 -0.015  0.038    0.009 -0.004  0.008    0.221 -0.164  0.219
 O          0.001  0.012  0.000    0.000 -0.003  0.003   -0.029 -0.251  0.152
 C          0.029  0.607  0.383   -0.114  0.099  0.073    0.042 -0.057 -0.013
 C         -0.001 -0.021  0.006    0.002 -0.003  0.004   -0.008  0.010  0.006
 O          0.000 -0.347 -0.278    0.011 -0.060 -0.050   -0.004  0.021  0.016
 C         -0.087 -0.138 -0.086    0.604  0.120  0.205   -0.016  0.022  0.009
 O          0.061  0.031  0.038   -0.343 -0.085 -0.163    0.008 -0.002  0.000
 C          0.017  0.002  0.018   -0.034 -0.001 -0.005   -0.014 -0.009  0.008
 H         -0.098 -0.033 -0.144    0.011  0.323  0.016   -0.038 -0.102 -0.044
 H          0.105  0.082 -0.132    0.037 -0.407 -0.052    0.073  0.125 -0.133
 H          0.029  0.068  0.098   -0.262 -0.018  0.015    0.168  0.022  0.013
 H         -0.208  0.085  0.191    0.080 -0.088  0.073    0.080 -0.080 -0.007
 H          0.034  0.123  0.026   -0.061 -0.141  0.058   -0.056 -0.105  0.003
 H         -0.143 -0.145  0.048    0.018 -0.001 -0.005    0.020  0.011  0.019
 TransDip  -0.293  0.243  0.476    0.348 -0.066  0.655   -0.257  0.479 -0.489

 Mode:                34                     35                     36
 Frequency:      2995.54                3004.68                3055.45
 Force Cnst:      5.4558                 5.5302                 6.0360
 Red. Mass:       1.0319                 1.0397                 1.0974
 IR Active:          YES                    YES                    YES
 IR Intens:       84.963                172.065                 55.677
 Raman Active:       YES                    YES                    YES
               X      Y      Z        X      Y      Z        X      Y      Z
 C          0.000  0.000  0.000    0.000  0.000  0.000    0.000 -0.001  0.000
 O          0.000  0.000  0.000    0.000  0.000  0.000    0.000  0.000  0.000
 O          0.000  0.000  0.000    0.000  0.000  0.000    0.000  0.001  0.000
 C          0.000  0.000  0.000    0.001 -0.001  0.000    0.000  0.000  0.001
 C          0.016 -0.006 -0.037   -0.006  0.002  0.016    0.001 -0.002 -0.001
 O          0.000  0.000  0.000    0.000  0.000  0.000    0.000  0.000  0.000
 C          0.001 -0.001  0.000   -0.003  0.000 -0.001   -0.001  0.000  0.001
 O         -0.001  0.000  0.000    0.001  0.000  0.000    0.000  0.000  0.000
 C         -0.014  0.012  0.012   -0.032  0.032  0.024   -0.036 -0.053  0.063
 H          0.260  0.005 -0.198    0.592  0.008 -0.449    0.430 -0.012 -0.314
 H         -0.099 -0.003 -0.057   -0.216 -0.006 -0.124    0.053 -0.010  0.056
 H          0.004 -0.139  0.115    0.013 -0.371  0.298   -0.053  0.665 -0.506
 H         -0.222 -0.246 -0.160    0.099  0.110  0.070    0.019  0.018  0.011
 H          0.325 -0.118  0.051   -0.148  0.054 -0.026   -0.024  0.007 -0.006
 H         -0.301  0.444  0.547    0.126 -0.185 -0.231    0.001  0.000 -0.006
 TransDip   0.061  0.124 -0.261   -0.272  0.228  0.225   -0.106 -0.137  0.165

 Mode:                37                     38                     39
 Frequency:      3123.92                3137.93                3181.79
 Force Cnst:      6.2943                 6.3542                 6.6280
 Red. Mass:       1.0947                 1.0953                 1.1112
 IR Active:          YES                    YES                    YES
 IR Intens:       46.193                 29.477                 16.458
 Raman Active:       YES                    YES                    YES
               X      Y      Z        X      Y      Z        X      Y      Z
 C          0.000  0.000  0.000    0.000  0.000  0.000    0.000  0.000  0.000
 O          0.000  0.000  0.000    0.000  0.000  0.000    0.000  0.000  0.000
 O          0.000  0.000  0.000    0.000  0.000  0.000    0.000  0.000  0.000
 C          0.000  0.001  0.001    0.000  0.000  0.000    0.000  0.000  0.000
 C         -0.029  0.073  0.040    0.005 -0.008 -0.004   -0.089 -0.018 -0.034
 O          0.000 -0.001  0.000    0.000  0.000  0.000    0.000  0.000  0.000
 C          0.000  0.001  0.000   -0.003  0.001  0.000   -0.001  0.000 -0.001
 O          0.000  0.000  0.000    0.001  0.000  0.000    0.001  0.000  0.000
 C         -0.011  0.000 -0.003   -0.077  0.007 -0.043   -0.001  0.000  0.000
 H          0.037 -0.001 -0.029    0.130  0.003 -0.114    0.003  0.000 -0.003
 H          0.093  0.005  0.060    0.809  0.054  0.504    0.010  0.002  0.006
 H         -0.002 -0.004  0.001   -0.006 -0.156  0.114    0.000 -0.004  0.003
 H         -0.394 -0.401 -0.227    0.037  0.040  0.021    0.427  0.472  0.259
 H          0.531 -0.188  0.137   -0.068  0.024 -0.017    0.651 -0.264  0.156
 H          0.208 -0.284 -0.387   -0.028  0.038  0.052   -0.013 -0.002 -0.004
 TransDip  -0.032  0.191  0.099   -0.130 -0.026 -0.113   -0.106 -0.046 -0.059

 STANDARD THERMODYNAMIC QUANTITIES AT   298.15 K  AND     1.00 ATM

   This Molecule has  1 Imaginary Frequencies
   Zero point vibrational energy:       63.967 kcal/mol

   Atom    1 Element C  Has Mass   12.00000
   Atom    2 Element O  Has Mass   15.99491
   Atom    3 Element O  Has Mass   15.99491
   Atom    4 Element C  Has Mass   12.00000
   Atom    5 Element C  Has Mass   12.00000
   Atom    6 Element O  Has Mass   15.99491
   Atom    7 Element C  Has Mass   12.00000
   Atom    8 Element O  Has Mass   15.99491
   Atom    9 Element C  Has Mass   12.00000
   Atom   10 Element H  Has Mass    1.00783
   Atom   11 Element H  Has Mass    1.00783
   Atom   12 Element H  Has Mass    1.00783
   Atom   13 Element H  Has Mass    1.00783
   Atom   14 Element H  Has Mass    1.00783
   Atom   15 Element H  Has Mass    1.00783
   Molecular Mass:   130.026620 amu
   Principal axes and moments of inertia in amu*Bohr^2:
                             1           2           3
    Eigenvalues --      803.33227  1321.21834  1462.97314
          X               0.99910    -0.02625    -0.03339
          Y               0.02489     0.99888    -0.04036
          Z               0.03442     0.03949     0.99863
   Rotational Symmetry Number is   1
   The Molecule is an Asymmetric Top
   Translational Enthalpy:        0.889 kcal/mol
   Rotational Enthalpy:           0.889 kcal/mol
   Vibrational Enthalpy:         68.164 kcal/mol
   gas constant (RT):             0.592 kcal/mol
   Translational Entropy:        40.501  cal/mol.K
   Rotational Entropy:           28.831  cal/mol.K
   Vibrational Entropy:          25.186  cal/mol.K

   Total Enthalpy:               70.534 kcal/mol
   Total Entropy:                94.517  cal/mol.K
Archival summary:
1\1\bt2600-11\FREQ\ProcedureUnspecified\6-31+G*\456(2-,1)\emavera\TueJun621:57:442017TueJun621:57:442017\0\\#,FREQ,ProcedureUnspecified,6-31+G*,\\-2,1\C\O,1,1.2653\C,1,1.50217,2,121.843\O,3,1.2532,1,124.415,2,1.7385,0\C,3,1.53555,1,118.191,2,-172.686,0\H,5,1.09265,3,113.498,1,-15.3583,0\H,5,1.09934,3,108.074,1,104.412,0\H,5,1.10048,3,108.784,1,-138.197,0\C,1,1.58072,2,117.115,3,-157.458,0\O,9,1.26244,1,119.565,2,-76.5757,0\O,9,1.27091,1,113.41,2,99.857,0\C,1,2.08705,2,107.693,3,84.0035,0\H,12,1.09239,1,91.1096,2,79.9817,0\H,12,1.09253,1,98.3956,2,-34.4528,0\H,12,1.10049,1,126.595,2,-161.216,0\\\@

 Total job time:  2999.69s(wall), 3000.18s(cpu) 
 Tue Jun  6 21:57:44 2017

        *************************************************************
        *                                                           *
        *  Thank you very much for using Q-Chem.  Have a nice day.  *
        *                                                           *
        *************************************************************


0 sent ACK to 0 
now end server 0 ... 
cleanup process ... done
