Jobname.Temp
FOPT      R                             6-31+G(d)           
Number of atoms                            I               15
Charge                                     I               -2
Multiplicity                               I                1
Number of electrons                        I               70
Number of alpha electrons                  I               35
Number of beta electrons                   I               35
Atomic numbers                             I   N=          15
           6           8           8           6           6           8
           6           8           6           1           1           1
           1           1           1
Current cartesian coordinates              R   N=          45
  2.42452356E+00  6.57641216E-01  3.32124110E-01  2.82212761E+00  2.89424299E+00
 -3.33382599E-01  4.14394509E+00 -4.80804151E-01  1.69329452E+00  6.42055630E-03
 -9.46348001E-01 -5.04853618E-01 -2.33444963E-01 -1.37316223E+00 -3.34299108E+00
  2.72364382E-01 -3.34847406E+00  6.33240771E-01 -2.35399246E+00  2.94470319E-01
  5.40308209E-01 -3.85311743E+00 -8.94194937E-01  1.97574944E+00 -2.85228991E+00
  2.90123883E+00 -1.50381481E-01 -1.85062255E+00  3.27510868E+00 -1.86918985E+00
 -1.60596563E+00  3.88183728E+00  1.13817338E+00 -4.96162900E+00  3.30386140E+00
 -3.66710994E-01 -2.07589896E+00 -2.17465467E+00 -4.06369641E+00  1.03809157E+00
 -3.14562389E+00 -3.38326261E+00  4.26166567E-01  2.90271580E-01 -4.45176740E+00
Nuclear charges                            R   N=          15
  6.00000000E+00  8.00000000E+00  8.00000000E+00  6.00000000E+00  6.00000000E+00
  8.00000000E+00  6.00000000E+00  8.00000000E+00  6.00000000E+00  1.00000000E+00
  1.00000000E+00  1.00000000E+00  1.00000000E+00  1.00000000E+00  1.00000000E+00
Number of basis functions                  I              183
Number of contracted shells                I               57
Number of primitive shells                 I              132
Highest angular momentum                   I                2
Largest degree of contraction              I                6
Shell types                                I   N=          57
           0          -1          -1          -1           2           0
          -1          -1          -1           2           0          -1
          -1          -1           2           0          -1          -1
          -1           2           0          -1          -1          -1
           2           0          -1          -1          -1           2
           0          -1          -1          -1           2           0
          -1          -1          -1           2           0          -1
          -1          -1           2           0           0           0
           0           0           0           0           0           0
           0           0           0
Number of primitives per shell             I   N=          57
           6           3           1           1           1           6
           3           1           1           1           6           3
           1           1           1           6           3           1
           1           1           6           3           1           1
           1           6           3           1           1           1
           6           3           1           1           1           6
           3           1           1           1           6           3
           1           1           1           3           1           3
           1           3           1           3           1           3
           1           3           1
Shell to atom map                          I   N=          57
           1           1           1           1           1           2
           2           2           2           2           3           3
           3           3           3           4           4           4
           4           4           5           5           5           5
           5           6           6           6           6           6
           7           7           7           7           7           8
           8           8           8           8           9           9
           9           9           9          10          10          11
          11          12          12          13          13          14
          14          15          15
Primitive exponents                        R   N=         132
  3.04752490E+03  4.57369510E+02  1.03948690E+02  2.92101550E+01  9.28666300E+00
  3.16392700E+00  7.86827240E+00  1.88128850E+00  5.44249300E-01  1.68714400E-01
  4.38000000E-02  8.00000000E-01  5.48467170E+03  8.25234950E+02  1.88046960E+02
  5.29645000E+01  1.68975700E+01  5.79963530E+00  1.55396160E+01  3.59993360E+00
  1.01376180E+00  2.70005800E-01  8.45000000E-02  8.00000000E-01  5.48467170E+03
  8.25234950E+02  1.88046960E+02  5.29645000E+01  1.68975700E+01  5.79963530E+00
  1.55396160E+01  3.59993360E+00  1.01376180E+00  2.70005800E-01  8.45000000E-02
  8.00000000E-01  3.04752490E+03  4.57369510E+02  1.03948690E+02  2.92101550E+01
  9.28666300E+00  3.16392700E+00  7.86827240E+00  1.88128850E+00  5.44249300E-01
  1.68714400E-01  4.38000000E-02  8.00000000E-01  3.04752490E+03  4.57369510E+02
  1.03948690E+02  2.92101550E+01  9.28666300E+00  3.16392700E+00  7.86827240E+00
  1.88128850E+00  5.44249300E-01  1.68714400E-01  4.38000000E-02  8.00000000E-01
  5.48467170E+03  8.25234950E+02  1.88046960E+02  5.29645000E+01  1.68975700E+01
  5.79963530E+00  1.55396160E+01  3.59993360E+00  1.01376180E+00  2.70005800E-01
  8.45000000E-02  8.00000000E-01  3.04752490E+03  4.57369510E+02  1.03948690E+02
  2.92101550E+01  9.28666300E+00  3.16392700E+00  7.86827240E+00  1.88128850E+00
  5.44249300E-01  1.68714400E-01  4.38000000E-02  8.00000000E-01  5.48467170E+03
  8.25234950E+02  1.88046960E+02  5.29645000E+01  1.68975700E+01  5.79963530E+00
  1.55396160E+01  3.59993360E+00  1.01376180E+00  2.70005800E-01  8.45000000E-02
  8.00000000E-01  3.04752490E+03  4.57369510E+02  1.03948690E+02  2.92101550E+01
  9.28666300E+00  3.16392700E+00  7.86827240E+00  1.88128850E+00  5.44249300E-01
  1.68714400E-01  4.38000000E-02  8.00000000E-01  1.87311370E+01  2.82539370E+00
  6.40121700E-01  1.61277800E-01  1.87311370E+01  2.82539370E+00  6.40121700E-01
  1.61277800E-01  1.87311370E+01  2.82539370E+00  6.40121700E-01  1.61277800E-01
  1.87311370E+01  2.82539370E+00  6.40121700E-01  1.61277800E-01  1.87311370E+01
  2.82539370E+00  6.40121700E-01  1.61277800E-01  1.87311370E+01  2.82539370E+00
  6.40121700E-01  1.61277800E-01
Contraction coefficients                   R   N=         132
  3.17779390E-03  2.43133190E-02  1.19238892E-01  4.02155213E-01  8.10498179E-01
  6.27542848E-01 -1.19332409E-01 -1.60854212E-01  1.14345648E+00  1.00000000E+00
  1.00000000E+00  1.00000000E+00  3.17155790E-03  2.41622794E-02  1.18550378E-01
  4.03072948E-01  8.14398079E-01  6.20976348E-01 -1.10777504E-01 -1.48026305E-01
  1.13076704E+00  1.00000000E+00  1.00000000E+00  1.00000000E+00  3.17155790E-03
  2.41622794E-02  1.18550378E-01  4.03072948E-01  8.14398079E-01  6.20976348E-01
 -1.10777504E-01 -1.48026305E-01  1.13076704E+00  1.00000000E+00  1.00000000E+00
  1.00000000E+00  3.17779390E-03  2.43133190E-02  1.19238892E-01  4.02155213E-01
  8.10498179E-01  6.27542848E-01 -1.19332409E-01 -1.60854212E-01  1.14345648E+00
  1.00000000E+00  1.00000000E+00  1.00000000E+00  3.17779390E-03  2.43133190E-02
  1.19238892E-01  4.02155213E-01  8.10498179E-01  6.27542848E-01 -1.19332409E-01
 -1.60854212E-01  1.14345648E+00  1.00000000E+00  1.00000000E+00  1.00000000E+00
  3.17155790E-03  2.41622794E-02  1.18550378E-01  4.03072948E-01  8.14398079E-01
  6.20976348E-01 -1.10777504E-01 -1.48026305E-01  1.13076704E+00  1.00000000E+00
  1.00000000E+00  1.00000000E+00  3.17779390E-03  2.43133190E-02  1.19238892E-01
  4.02155213E-01  8.10498179E-01  6.27542848E-01 -1.19332409E-01 -1.60854212E-01
  1.14345648E+00  1.00000000E+00  1.00000000E+00  1.00000000E+00  3.17155790E-03
  2.41622794E-02  1.18550378E-01  4.03072948E-01  8.14398079E-01  6.20976348E-01
 -1.10777504E-01 -1.48026305E-01  1.13076704E+00  1.00000000E+00  1.00000000E+00
  1.00000000E+00  3.17779390E-03  2.43133190E-02  1.19238892E-01  4.02155213E-01
  8.10498179E-01  6.27542848E-01 -1.19332409E-01 -1.60854212E-01  1.14345648E+00
  1.00000000E+00  1.00000000E+00  1.00000000E+00  5.80143482E-02  4.06558998E-01
  1.40946902E+00  1.73205081E+00  5.80143482E-02  4.06558998E-01  1.40946902E+00
  1.73205081E+00  5.80143482E-02  4.06558998E-01  1.40946902E+00  1.73205081E+00
  5.80143482E-02  4.06558998E-01  1.40946902E+00  1.73205081E+00  5.80143482E-02
  4.06558998E-01  1.40946902E+00  1.73205081E+00  5.80143482E-02  4.06558998E-01
  1.40946902E+00  1.73205081E+00
P(S=P) Contraction coefficients            R   N=         132
  0.00000000E+00  0.00000000E+00  0.00000000E+00  0.00000000E+00  0.00000000E+00
  0.00000000E+00  1.19509939E-01  5.48062410E-01  1.28917971E+00  1.73205081E+00
  1.73205081E+00  0.00000000E+00  0.00000000E+00  0.00000000E+00  0.00000000E+00
  0.00000000E+00  0.00000000E+00  0.00000000E+00  1.22757888E-01  5.88469108E-01
  1.25947563E+00  1.73205081E+00  1.73205081E+00  0.00000000E+00  0.00000000E+00
  0.00000000E+00  0.00000000E+00  0.00000000E+00  0.00000000E+00  0.00000000E+00
  1.22757888E-01  5.88469108E-01  1.25947563E+00  1.73205081E+00  1.73205081E+00
  0.00000000E+00  0.00000000E+00  0.00000000E+00  0.00000000E+00  0.00000000E+00
  0.00000000E+00  0.00000000E+00  1.19509939E-01  5.48062410E-01  1.28917971E+00
  1.73205081E+00  1.73205081E+00  0.00000000E+00  0.00000000E+00  0.00000000E+00
  0.00000000E+00  0.00000000E+00  0.00000000E+00  0.00000000E+00  1.19509939E-01
  5.48062410E-01  1.28917971E+00  1.73205081E+00  1.73205081E+00  0.00000000E+00
  0.00000000E+00  0.00000000E+00  0.00000000E+00  0.00000000E+00  0.00000000E+00
  0.00000000E+00  1.22757888E-01  5.88469108E-01  1.25947563E+00  1.73205081E+00
  1.73205081E+00  0.00000000E+00  0.00000000E+00  0.00000000E+00  0.00000000E+00
  0.00000000E+00  0.00000000E+00  0.00000000E+00  1.19509939E-01  5.48062410E-01
  1.28917971E+00  1.73205081E+00  1.73205081E+00  0.00000000E+00  0.00000000E+00
  0.00000000E+00  0.00000000E+00  0.00000000E+00  0.00000000E+00  0.00000000E+00
  1.22757888E-01  5.88469108E-01  1.25947563E+00  1.73205081E+00  1.73205081E+00
  0.00000000E+00  0.00000000E+00  0.00000000E+00  0.00000000E+00  0.00000000E+00
  0.00000000E+00  0.00000000E+00  1.19509939E-01  5.48062410E-01  1.28917971E+00
  1.73205081E+00  1.73205081E+00  0.00000000E+00  0.00000000E+00  0.00000000E+00
  0.00000000E+00  0.00000000E+00  0.00000000E+00  0.00000000E+00  0.00000000E+00
  0.00000000E+00  0.00000000E+00  0.00000000E+00  0.00000000E+00  0.00000000E+00
  0.00000000E+00  0.00000000E+00  0.00000000E+00  0.00000000E+00  0.00000000E+00
  0.00000000E+00  0.00000000E+00  0.00000000E+00  0.00000000E+00  0.00000000E+00
  0.00000000E+00  0.00000000E+00
Coordinates of each shell                  R   N=         171
  2.42452356E+00  6.57641216E-01  3.32124110E-01  2.42452356E+00  6.57641216E-01
  3.32124110E-01  2.42452356E+00  6.57641216E-01  3.32124110E-01  2.42452356E+00
  6.57641216E-01  3.32124110E-01  2.42452356E+00  6.57641216E-01  3.32124110E-01
  2.82212761E+00  2.89424299E+00 -3.33382599E-01  2.82212761E+00  2.89424299E+00
 -3.33382599E-01  2.82212761E+00  2.89424299E+00 -3.33382599E-01  2.82212761E+00
  2.89424299E+00 -3.33382599E-01  2.82212761E+00  2.89424299E+00 -3.33382599E-01
  4.14394509E+00 -4.80804151E-01  1.69329452E+00  4.14394509E+00 -4.80804151E-01
  1.69329452E+00  4.14394509E+00 -4.80804151E-01  1.69329452E+00  4.14394509E+00
 -4.80804151E-01  1.69329452E+00  4.14394509E+00 -4.80804151E-01  1.69329452E+00
  6.42055630E-03 -9.46348001E-01 -5.04853618E-01  6.42055630E-03 -9.46348001E-01
 -5.04853618E-01  6.42055630E-03 -9.46348001E-01 -5.04853618E-01  6.42055630E-03
 -9.46348001E-01 -5.04853618E-01  6.42055630E-03 -9.46348001E-01 -5.04853618E-01
 -2.33444963E-01 -1.37316223E+00 -3.34299108E+00 -2.33444963E-01 -1.37316223E+00
 -3.34299108E+00 -2.33444963E-01 -1.37316223E+00 -3.34299108E+00 -2.33444963E-01
 -1.37316223E+00 -3.34299108E+00 -2.33444963E-01 -1.37316223E+00 -3.34299108E+00
  2.72364382E-01 -3.34847406E+00  6.33240771E-01  2.72364382E-01 -3.34847406E+00
  6.33240771E-01  2.72364382E-01 -3.34847406E+00  6.33240771E-01  2.72364382E-01
 -3.34847406E+00  6.33240771E-01  2.72364382E-01 -3.34847406E+00  6.33240771E-01
 -2.35399246E+00  2.94470319E-01  5.40308209E-01 -2.35399246E+00  2.94470319E-01
  5.40308209E-01 -2.35399246E+00  2.94470319E-01  5.40308209E-01 -2.35399246E+00
  2.94470319E-01  5.40308209E-01 -2.35399246E+00  2.94470319E-01  5.40308209E-01
 -3.85311743E+00 -8.94194937E-01  1.97574944E+00 -3.85311743E+00 -8.94194937E-01
  1.97574944E+00 -3.85311743E+00 -8.94194937E-01  1.97574944E+00 -3.85311743E+00
 -8.94194937E-01  1.97574944E+00 -3.85311743E+00 -8.94194937E-01  1.97574944E+00
 -2.85228991E+00  2.90123883E+00 -1.50381481E-01 -2.85228991E+00  2.90123883E+00
 -1.50381481E-01 -2.85228991E+00  2.90123883E+00 -1.50381481E-01 -2.85228991E+00
  2.90123883E+00 -1.50381481E-01 -2.85228991E+00  2.90123883E+00 -1.50381481E-01
 -1.85062255E+00  3.27510868E+00 -1.86918985E+00 -1.85062255E+00  3.27510868E+00
 -1.86918985E+00 -1.60596563E+00  3.88183728E+00  1.13817338E+00 -1.60596563E+00
  3.88183728E+00  1.13817338E+00 -4.96162900E+00  3.30386140E+00 -3.66710994E-01
 -4.96162900E+00  3.30386140E+00 -3.66710994E-01 -2.07589896E+00 -2.17465467E+00
 -4.06369641E+00 -2.07589896E+00 -2.17465467E+00 -4.06369641E+00  1.03809157E+00
 -3.14562389E+00 -3.38326261E+00  1.03809157E+00 -3.14562389E+00 -3.38326261E+00
  4.26166567E-01  2.90271580E-01 -4.45176740E+00  4.26166567E-01  2.90271580E-01
 -4.45176740E+00
SCF Energy                                 R     -4.920993345473472E+02
Dipole_Data                                R   N=           3
 -6.42770384E+00  4.98848645E+00 -5.04573527E+00
Quadrupole_Data                            R   N=           6
 -9.31771525E+01 -7.01231438E+00 -8.43272937E+01 -6.29275899E-01  6.49169043E+00
 -6.84145981E+01
Octapole_Data                              R   N=          10
 -2.49888621E+01 -4.34139924E+00 -1.14754889E+01  1.30936823E+01 -2.75340878E+01
  1.31984958E+00 -1.01702543E+00  2.97833383E-01  6.50007297E+00  1.10263896E+01
Hexadecapole_Data                          R   N=          15
 -9.09696675E+02 -1.44249173E+01 -2.41149341E+02 -8.94072600E+00 -5.80975035E+02
 -8.68549595E+00  9.47724790E+00  1.22588063E+00  8.15293136E+00 -2.14300604E+02
  8.78599204E-01 -1.42823649E+02 -5.25412431E+00 -8.53878016E+00 -3.81907610E+02
Cartesian Forces                           R   N=          45
  9.84194372E-02 -2.51127855E-02  4.04747991E-02 -3.32452955E-02  2.28153184E-03
 -1.44021765E-02 -6.46507792E-02  3.05149047E-02 -4.29075168E-02  1.60282334E-02
 -7.54054756E-02  7.40743878E-02  2.49690565E-02 -3.06987812E-02 -2.02316176E-02
 -1.74047337E-02  3.53260183E-02 -3.22751858E-02 -5.76714074E-02 -8.30812873E-02
  5.88756818E-02  4.41142157E-02  5.62218281E-02 -5.36643301E-02 -1.76549014E-02
  1.94067131E-02 -2.13415537E-02 -5.22551845E-03  4.85182187E-03 -1.38104770E-02
 -1.81106348E-02  1.96847774E-02  1.08939148E-02  3.59256051E-02  3.88263529E-03
  1.65649574E-02  1.32275045E-02  2.04983434E-02  1.52999980E-02 -1.32553950E-02
  4.03273911E-02 -1.63492454E-02 -5.46538686E-03 -1.86976356E-02 -1.20163599E-03
Current cartesian coordinates              R   N=          45
  2.42081103E+00  6.16255586E-01  3.30232631E-01  2.57282413E+00  2.85087114E+00
 -4.36911449E-01  4.16333858E+00 -3.85545778E-01  1.66038977E+00  2.66256370E-02
 -1.05904370E+00 -4.31425978E-01 -1.75014638E-01 -1.39732657E+00 -3.31104632E+00
  2.37513678E-01 -3.45238669E+00  6.19237309E-01 -2.35848642E+00  2.41221501E-01
  5.73500110E-01 -3.91437441E+00 -8.31175464E-01  1.94819697E+00 -2.80895559E+00
  2.90751139E+00 -1.46462635E-01 -1.81021434E+00  3.30566552E+00 -1.87550807E+00
 -1.64177992E+00  3.96375864E+00  1.16637158E+00 -4.86231327E+00  3.33337514E+00
 -3.51998712E-01 -2.03130119E+00 -2.11868905E+00 -3.98086709E+00  1.06968917E+00
 -3.10431970E+00 -3.52050942E+00  4.58316000E-01  2.65238403E-01 -4.39654432E+00
SCF Energy                                 R     -4.921374797163572E+02
Dipole_Data                                R   N=           3
 -5.77993416E+00  4.87043285E+00 -4.60441955E+00
Quadrupole_Data                            R   N=           6
 -9.19531922E+01 -6.49457753E+00 -8.50800097E+01 -4.71382072E-01  6.48192121E+00
 -6.78652218E+01
Octapole_Data                              R   N=          10
 -1.85199714E+01 -3.77028596E+00 -9.17593223E+00  1.80836775E+01 -2.65091923E+01
  1.47119443E+00 -5.82741226E-01  1.43081974E+00  6.80574561E+00  1.18352513E+01
Hexadecapole_Data                          R   N=          15
 -8.91722663E+02 -7.55984484E+00 -2.37115220E+02 -4.09512970E+00 -5.93208628E+02
 -4.16644655E+00  9.13260986E+00  2.45689032E+00  9.26191922E+00 -2.09283290E+02
  9.16789190E-01 -1.43616320E+02 -1.86955169E+00 -8.44998435E+00 -3.73317357E+02
Cartesian Forces                           R   N=          45
  5.99515726E-02 -1.29491546E-02  2.58606589E-02 -1.51716628E-02  1.44444044E-03
 -8.48301396E-03 -4.44176021E-02  1.77048369E-02 -2.94352194E-02  1.34848748E-02
 -6.26767468E-02  5.31243690E-02  1.50147539E-02 -1.92700405E-02 -1.43159053E-02
 -1.21144410E-02  3.00286309E-02 -2.06251031E-02 -3.65787685E-02 -4.08626496E-02
  3.10937164E-02  2.86337241E-02  2.83374993E-02 -3.06666619E-02 -1.82327832E-03
  1.24596392E-02 -1.84276050E-02 -5.43319487E-03  1.78369572E-03 -7.43523562E-03
 -1.64375392E-02  1.15245934E-02  6.71991170E-03  1.94116872E-02  2.73352035E-03
  1.33906199E-02  6.13509337E-03  1.34088226E-02  8.74668581E-03 -6.41357321E-03
  2.72479437E-02 -8.48843494E-03 -4.24164587E-03 -1.09150311E-02 -1.05878254E-03
Current cartesian coordinates              R   N=          45
  2.49760173E+00  5.24778623E-01  3.45537620E-01  2.61249401E+00  2.71304857E+00
 -5.62759332E-01  4.20666433E+00 -4.51094827E-01  1.61317028E+00  7.23921146E-02
 -1.14428673E+00 -3.41401483E-01 -1.13771151E-01 -1.38222534E+00 -3.26249520E+00
  1.83651830E-01 -3.48936874E+00  6.64126280E-01 -2.33900869E+00  2.28827780E-01
  5.99838659E-01 -3.90075953E+00 -7.84879709E-01  1.92970861E+00 -2.85327155E+00
  2.92135144E+00 -1.82534943E-01 -1.90955475E+00  3.35627735E+00 -1.93869089E+00
 -1.82457755E+00  4.10673687E+00  1.13339920E+00 -4.88842684E+00  3.26303736E+00
 -3.28786374E-01 -2.00021620E+00 -1.99200920E+00 -3.88382241E+00  1.09054149E+00
 -3.02150956E+00 -3.63324783E+00  5.12919205E-01  2.86726473E-01 -4.30538781E+00
SCF Energy                                 R     -4.921576510258095E+02
Dipole_Data                                R   N=           3
 -5.68746511E+00  4.87550607E+00 -4.09777215E+00
Quadrupole_Data                            R   N=           6
 -9.16330375E+01 -6.30970350E+00 -8.48945937E+01 -1.31155545E-01  6.92729501E+00
 -6.76091458E+01
Octapole_Data                              R   N=          10
 -2.08789814E+01 -3.50628840E+00 -8.85630721E+00  2.30857628E+01 -2.45824189E+01
  2.41159505E+00 -1.77630416E-01  1.27598413E+00  7.86991283E+00  1.27889299E+01
Hexadecapole_Data                          R   N=          15
 -9.01539253E+02  4.88839805E-01 -2.37843813E+02  2.94668124E+00 -5.88634645E+02
 -1.29051627E+00  1.26270858E+01  3.14066238E+00  1.52697917E+01 -2.08549536E+02
  2.29941730E+00 -1.42987153E+02  8.47634572E-01 -3.76327722E+00 -3.66608867E+02
Cartesian Forces                           R   N=          45
  2.19100037E-02 -3.45810103E-03 -1.42296046E-03 -1.01615848E-02  5.95471301E-03
 -3.29910978E-03 -1.21407735E-02  3.59740481E-03 -3.11640720E-03  7.75354753E-03
 -3.68651306E-02  3.25483297E-02  4.52015725E-03 -6.36665514E-03 -7.26977620E-03
 -6.56693647E-03  1.42734071E-02 -1.17808500E-02 -1.05318190E-02 -1.07914090E-02
  6.47679221E-03  4.50744009E-03  7.65736098E-03 -5.92787313E-03  9.74860501E-03
  4.93053548E-03 -1.33744597E-02 -3.84036285E-03 -4.21695109E-04 -4.65267050E-03
 -1.05892636E-02  5.40957610E-03  5.55209050E-03  6.02583665E-03  3.16028652E-03
  7.96182204E-03  1.03840377E-03  6.55729323E-03  3.29813767E-03  1.47784457E-03
  1.02367516E-02 -4.10503622E-03 -3.15109819E-03 -3.87433803E-03 -8.88029045E-04
Current cartesian coordinates              R   N=          45
  2.50252707E+00  4.91784966E-01  3.09069683E-01  2.41490570E+00  2.73054723E+00
 -4.92337554E-01  4.17630465E+00 -3.67255166E-01  1.67160531E+00  9.88303002E-02
 -1.24494821E+00 -3.03889043E-01 -1.24368464E-01 -1.38592738E+00 -3.24908818E+00
  1.85636684E-01 -3.56524298E+00  6.67010469E-01 -2.30528635E+00  1.96856851E-01
  6.04699921E-01 -3.88729942E+00 -7.47959495E-01  1.94529464E+00 -2.77301290E+00
  2.90724933E+00 -2.32338968E-01 -1.86315415E+00  3.31264397E+00 -2.01539049E+00
 -1.79180847E+00  4.13101569E+00  1.08532255E+00 -4.79949676E+00  3.26673444E+00
 -3.24171000E-01 -2.03143248E+00 -1.95366904E+00 -3.82964823E+00  1.09572573E+00
 -2.96174500E+00 -3.75027486E+00  4.48607295E-01  3.25325150E-01 -4.23920987E+00
SCF Energy                                 R     -4.921628124197200E+02
Dipole_Data                                R   N=           3
 -5.17980421E+00  4.69572475E+00 -4.21676408E+00
Quadrupole_Data                            R   N=           6
 -9.04765436E+01 -5.95683427E+00 -8.55412039E+01 -7.37068603E-01  6.47603889E+00
 -6.78735625E+01
Octapole_Data                              R   N=          10
 -1.60669962E+01 -3.27354750E+00 -8.03377544E+00  2.56455507E+01 -2.54231731E+01
  1.68106598E+00 -4.89051681E-01  1.76758031E+00  8.35387527E+00  1.21971935E+01
Hexadecapole_Data                          R   N=          15
 -8.74143486E+02  3.74019425E+00 -2.33808041E+02  4.07396209E+00 -6.00076836E+02
 -6.71490225E+00  1.14189065E+01  9.95230330E-01  1.51342149E+01 -2.05553629E+02
  1.86763723E+00 -1.44935381E+02 -2.74258791E+00 -4.86275784E+00 -3.68910808E+02
Cartesian Forces                           R   N=          45
 -7.10586583E-03  1.05086079E-02  1.78280719E-02  2.99447720E-03 -2.82792174E-03
 -8.83080913E-03  4.41583994E-03 -3.88134442E-03 -5.38447239E-03  8.00545210E-03
 -1.91104384E-02  1.19961790E-02 -2.33949099E-04 -4.51424057E-03 -4.84250222E-03
 -3.29923714E-03  6.46451279E-03 -7.02484306E-03 -1.85161427E-03  1.85401993E-04
  3.25120155E-03 -2.52273527E-04  1.45907131E-03 -1.42556690E-03  6.09131814E-03
  2.17373059E-03 -8.85764126E-03 -4.04493481E-03 -1.85578880E-05 -1.21461054E-03
 -6.65903944E-03  2.24946645E-03  2.71509912E-03  1.18820845E-03  1.64572698E-03
  4.33002361E-03  7.68990554E-04  2.98604517E-03  8.55569581E-04  2.19144196E-03
  4.21774201E-03 -2.62392992E-03 -2.20881420E-03 -1.53780226E-03 -7.71769432E-04
Current cartesian coordinates              R   N=          45
  2.47635046E+00  4.78655051E-01  3.76722928E-01  2.37386424E+00  2.64074670E+00
 -6.29051218E-01  4.24714681E+00 -3.72487599E-01  1.60114828E+00  1.07301637E-01
 -1.32433986E+00 -2.23687312E-01 -1.04075502E-01 -1.35610702E+00 -3.19848908E+00
  1.62123977E-01 -3.63310677E+00  6.83045262E-01 -2.31130465E+00  1.71270322E-01
  6.28377098E-01 -3.93779712E+00 -7.19149679E-01  1.94487348E+00 -2.74641917E+00
  2.89388610E+00 -2.73787294E-01 -1.85458594E+00  3.28246161E+00 -2.07155386E+00
 -1.84943467E+00  4.16879738E+00  1.05787514E+00 -4.76759237E+00  3.25159632E+00
 -3.40918043E-01 -2.01943875E+00 -1.88214695E+00 -3.77312216E+00  1.13880320E+00
 -2.86200713E+00 -3.81556429E+00  4.31736290E-01  3.97341887E-01 -4.11921454E+00
SCF Energy                                 R     -4.921651251406142E+02
Dipole_Data                                R   N=           3
 -5.04374776E+00  4.81107963E+00 -3.82443806E+00
Quadrupole_Data                            R   N=           6
 -9.13134151E+01 -5.65897927E+00 -8.54618166E+01 -1.35343717E-01  6.79568833E+00
 -6.77013370E+01
Octapole_Data                              R   N=          10
 -1.58270011E+01 -2.39908896E+00 -6.94628326E+00  2.97556073E+01 -2.47901137E+01
  2.09876022E+00 -2.75084108E-01  2.31648618E+00  9.08264355E+00  1.23213155E+01
Hexadecapole_Data                          R   N=          15
 -8.89334405E+02  6.87340153E+00 -2.33125522E+02  7.24281826E+00 -6.00661452E+02
 -2.72709987E+00  1.39887250E+01  2.05907030E+00  2.06489517E+01 -2.05772513E+02
  2.17525921E+00 -1.44468451E+02  1.89925679E-01 -3.53999751E-01 -3.63262442E+02
Cartesian Forces                           R   N=          45
 -1.67012064E-03  2.01446191E-03 -1.56868178E-02  4.68434596E-03 -3.49023105E-03
  7.68647395E-03  4.32722932E-03 -3.90956392E-04  7.20136199E-03 -3.70229004E-04
  3.82648646E-03  3.96491583E-03 -1.29236393E-03 -1.43054686E-03 -2.94087915E-03
 -9.76909703E-04 -1.83704664E-03  4.06020835E-04  2.02768108E-03  4.84191279E-03
 -2.26102375E-03 -2.69087103E-03 -2.07413652E-03  2.68420838E-03  3.28310092E-03
  1.03460344E-04 -3.72166301E-03 -3.44719992E-03 -1.04942469E-04  1.90723462E-03
 -2.05818158E-03 -8.24951838E-05  6.31669407E-04 -2.64287832E-03  2.37102257E-04
  1.18235236E-03  5.45773181E-05 -7.64176653E-04 -3.66805936E-04  2.20764762E-03
 -4.75651957E-04 -8.04284091E-04 -1.43582804E-03 -3.73240103E-04  1.17236250E-04
Current cartesian coordinates              R   N=          45
  2.62132300E+00  3.73215761E-01  4.01320400E-01  2.65169927E+00  2.54771827E+00
 -5.75340780E-01  4.29035129E+00 -5.47572136E-01  1.72487342E+00  1.45649227E-01
 -1.30324630E+00 -2.17856375E-01 -8.09512897E-02 -1.33151981E+00 -3.21345698E+00
  1.10610297E-01 -3.61895818E+00  6.37747484E-01 -2.26508515E+00  2.34421608E-01
  6.69116396E-01 -3.84944925E+00 -6.44742423E-01  2.04352118E+00 -2.85760839E+00
  2.91159192E+00 -3.23651018E-01 -2.12010981E+00  3.28761259E+00 -2.18816996E+00
 -2.00027628E+00  4.29354377E+00  9.25375473E-01 -4.89440708E+00  3.16756692E+00
 -2.58868461E-01 -2.00031804E+00 -1.85174243E+00 -3.76444734E+00  1.17365064E+00
 -2.80728704E+00 -3.87687701E+00  4.21600003E-01  4.24807841E-01 -4.13663205E+00
SCF Energy                                 R     -4.921658158082739E+02
Dipole_Data                                R   N=           3
 -5.58376475E+00  4.98693937E+00 -3.99278370E+00
Quadrupole_Data                            R   N=           6
 -9.18597829E+01 -5.70928077E+00 -8.48204393E+01 -5.48254068E-01  6.75615973E+00
 -6.84674625E+01
Octapole_Data                              R   N=          10
 -2.60307189E+01 -2.56563804E+00 -9.12067260E+00  3.18520569E+01 -2.63081124E+01
  2.98563047E+00 -7.20104603E-01  3.55837309E-01  9.65535837E+00  9.76019576E+00
Hexadecapole_Data                          R   N=          15
 -9.18689685E+02  1.55872233E+01 -2.38106301E+02  1.35936443E+01 -5.88572667E+02
 -1.06221638E+01  1.63741399E+01  1.55682831E-02  2.04165706E+01 -2.15258694E+02
  5.13432575E+00 -1.44712593E+02 -2.95742044E+00  9.55336367E-01 -3.76240651E+02
Cartesian Forces                           R   N=          45
 -8.05317637E-03  5.52509355E-03 -3.70865847E-03 -8.73546997E-04 -3.70374435E-03
  2.67357674E-03  2.03130857E-03 -1.08126546E-03  1.30954234E-03  3.44980158E-03
  2.89674013E-03 -5.37026367E-03 -1.67748256E-03  3.89900617E-03  1.63897150E-03
 -7.76083257E-04 -6.23935317E-03  4.45501407E-03 -2.11897163E-05  4.10428136E-03
 -6.06510895E-03  5.62591392E-04 -1.48347954E-03  3.69327656E-03  4.76832909E-03
 -5.79136112E-04  2.41072539E-03  1.42146620E-04 -9.22275436E-04 -3.95117404E-04
  1.86794547E-03 -9.04234976E-04  4.34775439E-04 -1.87967255E-03 -4.31876341E-04
 -1.45975348E-03 -8.76907648E-04 -2.37698192E-03 -4.79229675E-04  1.53057342E-03
 -1.58367169E-03  1.27115288E-03 -1.94636992E-04  2.88089770E-03 -4.08903362E-04
Current cartesian coordinates              R   N=          45
  2.55655151E+00  3.77371765E-01  4.14803686E-01  2.56357575E+00  2.58207651E+00
 -4.72045829E-01  4.24767658E+00 -5.59109586E-01  1.71003678E+00  1.17575500E-01
 -1.31718149E+00 -2.39100030E-01 -9.76861729E-02 -1.32487378E+00 -3.22748437E+00
  8.82115821E-02 -3.64838241E+00  6.37028678E-01 -2.27310460E+00  2.31163243E-01
  6.44757487E-01 -3.79983387E+00 -6.01332999E-01  2.11620875E+00 -2.81769290E+00
  2.90703606E+00 -3.41341360E-01 -2.11740936E+00  3.24076988E+00 -2.22619498E+00
 -1.86321091E+00  4.25493717E+00  8.73910403E-01 -4.85117470E+00  3.22102569E+00
 -2.37268591E-01 -1.96062153E+00 -2.01019737E+00 -3.80607547E+00  1.28371300E+00
 -2.70046560E+00 -3.87147215E+00  2.70108562E-01  4.82573291E-01 -4.12910861E+00
SCF Energy                                 R     -4.921669375924768E+02
Dipole_Data                                R   N=           3
 -5.43687151E+00  5.06066913E+00 -4.27144486E+00
Quadrupole_Data                            R   N=           6
 -9.10479014E+01 -5.32524282E+00 -8.52280209E+01 -5.03393834E-01  6.44787352E+00
 -6.85777774E+01
Octapole_Data                              R   N=          10
 -2.34811120E+01 -2.29846128E+00 -8.35688711E+00  3.27891423E+01 -2.70488313E+01
  2.50231431E+00 -1.26877483E+00  1.58023327E+00  9.77604775E+00  8.46268627E+00
Hexadecapole_Data                          R   N=          15
 -8.92283952E+02  1.85510898E+01 -2.34855151E+02  1.40741362E+01 -5.95630358E+02
 -1.11194716E+01  1.47805351E+01 -7.20309436E-01  1.85457196E+01 -2.12368579E+02
  5.75201304E+00 -1.45806894E+02 -2.37809523E+00 -5.59884061E-01 -3.79470076E+02
Cartesian Forces                           R   N=          45
  2.74008825E-04  5.91294424E-04  2.43792938E-03 -2.18058952E-03 -6.93598418E-04
 -1.34815171E-03 -6.59716422E-04 -7.44936127E-04 -1.13939667E-03 -1.73050471E-03
 -2.27755715E-03 -1.39727522E-03  1.90103109E-03 -6.61804431E-04  1.03991182E-03
 -7.20225077E-04  3.54487980E-03 -2.54445425E-03  2.24394260E-03  1.35660753E-03
  4.40224597E-03 -3.43770670E-04  3.04252533E-04 -1.00616036E-03  4.13757010E-04
 -2.82492202E-04  5.69144282E-04 -4.00724875E-04  2.25020279E-04 -6.59354915E-04