
Running Job 1 of 1 reac_e.qcin
qchem reac_e.qcin_41006.0 /tmp/reac_e.qcin/ 1
/programs/x86_64/lib/qchem-4.3.2/bin/mpi/mpirun_qchem -machinefile /var/spool/torque/aux//113229.vali -np 1 /programs/x86_64/lib/qchem-4.3.2/exe/qcprog.exe reac_e.qcin_41006.0 /tmp/reac_e.qcin/

Process 0 of 1 is on bt2600-16.csail.mit.edu - thread support 0
initial socket setup ...start
initial socket setup ...done 
now start server 0 ... 

cmd = ssh thor /programs/x86_64/lib/qchem-4.3.2/bin/get_hostid 677611263 > /tmp/reac_e.qcin/lic.dat
                  Welcome to Q-Chem
     A Quantum Leap Into The Future Of Chemistry


 Q-Chem 4.3, Q-Chem, Inc., Pleasanton, CA (2015)

 Y. Shao,  Z. Gan,  E. Epifanovsky,  A. T. B. Gilbert,  M. Wormit,  
 J. Kussmann,  A. W. Lange,  A. Behn,  J. Deng,  X. Feng,  D. Ghosh,  
 M. Goldey,  P. R. Horn,  L. D. Jacobson,  I. Kaliman,  R. Z. Khaliullin,  
 T. Kus,  A. Landau,  J. Liu,  E. I. Proynov,  Y. M. Rhee,  R. M. Richard,  
 M. A. Rohrdanz,  R. P. Steele,  E. J. Sundstrom,  H. L. Woodcock III,  
 P. M. Zimmerman,  D. Zuev,  B. Albrecht,  E. Alguire,  B. Austin,  
 S. A. Baeppler,  G. J. O. Beran,  Y. A. Bernard,  E. Berquist,  
 K. Brandhorst,  K. B. Bravaya,  S. T. Brown,  D. Casanova,  C.-M. Chang,  
 Y. Chen,  S. H. Chien,  K. D. Closser,  D. L. Crittenden,  M. Diedenhofen,  
 R. A. DiStasio Jr.,  H. Do,  A. D. Dutoi,  R. G. Edgar,  P.-T. Fang,  
 S. Fatehi,  Q. Feng,  L. Fusti-Molnar,  A. Ghysels,  
 A. Golubeva-Zadorozhnaya,  J. Gomes,  A. Gunina,  M. W. D. Hanson-Heine,  
 P. H. P. Harbach,  A. W. Hauser,  E. G. Hohenstein,  Z. C. Holden,  K. Hui,  
 T.-C. Jagau,  H. Ji,  B. Kaduk,  K. Khistyaev,  Jaehoon Kim,  Jihan Kim,  
 R. A. King,  P. Klunzinger,  D. Kosenkov,  T. Kowalczyk,  C. M. Krauter,  
 K. U. Lao,  A. Laurent,  K. V. Lawler,  S. Lehtola,  S. V. Levchenko,  
 C. Y. Lin,  Y.-S. Lin,  F. Liu,  E. Livshits,  R. C. Lochan,  A. Luenser,  
 P. Manohar,  S. F. Manzer,  S.-P. Mao,  N. Mardirossian,  A. V. Marenich,  
 L. A. Martinez-Martinez,  S. A. Maurer,  N. J. Mayhall,  K. Nanda,  
 C. M. Oana,  R. Olivares-Amaya,  D. P. O'Neill,  J. A. Parkhill,  
 T. M. Perrine,  R. Peverati,  P. A. Pieniazek,  F. Plasser,  A. Prociuk,  
 D. R. Rehn,  E. Rosta,  N. J. Russ,  N. Sergueev,  S. M. Sharada,  
 S. Sharma,  D. W. Small,  A. Sodt,  T. Stauch,  T. Stein,  D. Stuck,  
 Y.-C. Su,  A. J. W. Thom,  T. Tsuchimochi,  L. Vogt,  O. Vydrov,  T. Wang,  
 M. A. Watson,  J. Wenzel,  A. White,  C. F. Williams,  V. Vanovschi,  
 S. Yeganeh,  S. R. Yost,  Z.-Q. You,  I. Y. Zhang,  X. Zhang,  Y. Zhao,  
 B. R. Brooks,  G. K. L. Chan,  D. M. Chipman,  C. J. Cramer,  
 W. A. Goddard III,  M. S. Gordon,  W. J. Hehre,  A. Klamt,  
 H. F. Schaefer III,  M. W. Schmidt,  C. D. Sherrill,  D. G. Truhlar,  
 A. Warshel,  X. Xu,  A. Aspuru-Guzik,  R. Baer,  A. T. Bell,  N. A. Besley,  
 J.-D. Chai,  A. Dreuw,  B. D. Dunietz,  T. R. Furlani,  S. R. Gwaltney,  
 C.-P. Hsu,  Y. Jung,  J. Kong,  D. S. Lambrecht,  W. Liang,  C. Ochsenfeld,  
 V. A. Rassolov,  L. V. Slipchenko,  J. E. Subotnik,  T. Van Voorhis,  
 J. M. Herbert,  A. I. Krylov,  P. M. W. Gill,  M. Head-Gordon

 Contributors to earlier versions of Q-Chem not listed above: 
 R. D. Adamson,  J. Baker,  E. F. C. Byrd,  A. K. Chakraborty,  C.-L. Cheng,  
 H. Dachsel,  R. J. Doerksen,  G. Hawkins,  A. Heyden,  S. Hirata,  
 G. Kedziora,  F. J. Keil,  C. Kelley,  P. P. Korambath,  W. Kurlancheek,  
 A. M. Lee,  M. S. Lee,  D. Liotard,  I. Lotan,  P. E. Maslen,  N. Nair,  
 D. Neuhauser,  R. Olson,  B. Peters,  J. Ritchie,  N. E. Schultz,  
 N. Shenvi,  A. C. Simmonett,  K. S. Thanthiriwatte,  Q. Wu,  W. Zhang

 Please cite Q-Chem as follows:
 Y. Shao et al., Mol. Phys. 113, 184-215 (2015)
 DOI: 10.1080/00268976.2014.952696

 Q-Chem 4.3.0 for Intel X86 Linux

 Parts of Q-Chem use Armadillo 5.200.1 (Boston Tea Smuggler).
 http://arma.sourceforge.net/

 Q-Chem begins on Sun Apr 23 17:53:08 2017  

Host: 
0

     Scratch files written to /tmp/reac_e.qcin//
 Oct1215 13750_ 19228  19214 4150   
 Parallel job on  1  processors
Processing $rem in /programs/x86_64/lib/qchem-4.3.2/config/preferences.
 MEM_TOTAL  2000 

Checking the input file for inconsistencies... 	...done.

--------------------------------------------------------------
User input:
--------------------------------------------------------------
$rem
JOBTYPE Opt
EXCHANGE HF
BASIS 6-31+G(d)
GUI=2
pdb_print 2
NBO TRUE
$end

$comment
reactantstate
$end

$molecule
-2 1
C        3.29600       -0.86600        2.39400
O        4.50600       -1.03900        2.12000
O        2.92600       -0.95400        3.64500
C        2.15900       -0.62100        1.29800
C        1.96600       -1.76700        0.31200
O        0.94700       -0.47600        2.01100
C        2.44300        0.67600        0.56700
O        1.59900        1.61900        0.54700
C        3.71800        0.81000       -0.11300
H        4.08300       -0.17800       -0.30800
H        4.36500        1.05500        0.71800
H        3.63500        1.42000       -1.07500
H        1.31600       -1.57200       -0.59100
H        1.23900       -2.36100        0.98400
H        2.92900       -2.26400        0.05400
$end

--------------------------------------------------------------
 ----------------------------------------------------------------
             Standard Nuclear Orientation (Angstroms)
    I     Atom           X                Y                Z
 ----------------------------------------------------------------
    1      C       1.2830026172     0.3480087442     0.1757525102
    2      O       1.4934056190     1.5315674351    -0.1764184740
    3      O       2.1928813064    -0.2544305993     0.8960528699
    4      C       0.0033976121    -0.5007857955    -0.2671570292
    5      C      -0.1235337544    -0.7266461583    -1.7690346956
    6      O       0.1441290242    -1.7719361619     0.3350965849
    7      C      -1.2456791660     0.1558269821     0.2859187909
    8      O      -2.0389819342    -0.4731875828     1.0455215787
    9      C      -1.5093668175     1.5352694735    -0.0795784529
   10      H      -0.9793072782     1.7331128758    -0.9891326695
   11      H      -0.8498404139     2.0541798246     0.6022954141
   12      H      -2.6255809964     1.7483281599    -0.1940551011
   13      H      -1.0985184199    -1.1507776935    -2.1504155327
   14      H       0.5493344011    -1.6645924767    -1.7903454717
   15      H       0.2255176351     0.1536051048    -2.3557738550
 ----------------------------------------------------------------
 Molecular Point Group                 C1    NOp =  1
 Largest Abelian Subgroup              C1    NOp =  1
 Nuclear Repulsion Energy =   453.4532808087 hartrees
 There are       35 alpha and       35 beta electrons
 Requested basis set is 6-31+G(d)
 There are 57 shells and 183 basis functions

 Total QAlloc Memory Limit   2000 MB
 Mega-Array Size        61 MB
 MEM_STATIC part        62 MB
 A cutoff of  1.0D-11 yielded   1552 shell pairs
 There are     16644 function pairs
 
 -------------------------------------------------------
 OpenMP Integral Computing Module                       
 Release: version 1.0, May 2013, Q-Chem Inc. Pittsburgh 
 -------------------------------------------------------
 Integral Job Info:
 Integral job number is                      11
 Integral operator is                         1
 short-range coefficients                     0
 long-range coefficients              100000000
 Omega coefficients                           0
 if combine SR and LR in K                    0
 Integral screening is                        0
 Integral computing path is                   2
 max size of driver memory is            800000
 size of driver memory is                593474
 size of scratch memory is              2260544
 max col of scratch BK array               1296
 max len of scratch array in speh3          155
 max len of scratch index in speh4           18
 max int batch size is                      520
 min int batch size is                       52
 fixed nKL is                                52
 max L of basis functions is                  2
 order of int derivative is                   0
 number of shells is                         57
 number of basis is                         183
 number of cartesian basis is               183
 number of contracted shell pairs          1552
 number of primitive shell pairs           5383
 maxK2 (contraction) of shell pair           36
 max number of K2 of shell pair               1
 max number of CS2 of shell pair            205
 max number of PS2 of shell pair           1230
 mem total for path MDJ                   44296
 -------------------------------------------------------
 Smallest overlap matrix eigenvalue = 3.09E-05

 Scale SEOQF with 1.000000e-01/1.000000e-01/1.000000e-01

 Standard Electronic Orientation quadrupole field applied
 Nucleus-field energy     =     0.0000000050 hartrees
 Guess from superposition of atomic densities
 Warning:  Energy on first SCF cycle will be non-variational
 A restricted Hartree-Fock SCF calculation will be
 performed using Pulay DIIS extrapolation
 SCF converges when DIIS error is below 1.0E-08
 ---------------------------------------
  Cycle       Energy         DIIS Error
 ---------------------------------------
    1    -493.9139523330      5.11E-02
    2    -491.7040583401      1.00E-02
    3    -491.8521632725      8.74E-03
    4    -492.0931567400      9.59E-04
    5    -492.0980401961      4.95E-04
    6    -492.0991642760      1.12E-04
    7    -492.0993013799      4.86E-05
    8    -492.0993289894      2.12E-05
    9    -492.0993336790      8.58E-06
   10    -492.0993343902      3.42E-06
   11    -492.0993345234      1.07E-06
   12    -492.0993345424      4.58E-07
   13    -492.0993345461      1.91E-07
   14    -492.0993345471      8.87E-08
   15    -492.0993345477      4.72E-08
   16    -492.0993345472      1.85E-08
   17    -492.0993345473      6.01E-09 Convergence criterion met
 ---------------------------------------
 SCF time:  CPU 117.65 s  wall 116.73 s
 SCF   energy in the final basis set = -492.0993345473
 Total energy in the final basis set = -492.0993345473
 
 --------------------------------------------------------------
 
                    Orbital Energies (a.u.)
 --------------------------------------------------------------
 
 Alpha MOs
 -- Occupied --
-20.255 -20.178 -20.147 -20.086 -11.032 -11.001 -10.963 -10.950
-10.944  -1.055  -1.026  -0.898  -0.866  -0.763  -0.672  -0.557
 -0.444  -0.382  -0.352  -0.322  -0.315  -0.301  -0.274  -0.258
 -0.237  -0.213  -0.196  -0.176  -0.137  -0.101  -0.079  -0.042
 -0.039   0.006   0.018
 -- Virtual --
  0.272   0.288   0.316   0.334   0.342   0.350   0.360   0.367
  0.377   0.388   0.400   0.403   0.414   0.428   0.440   0.456
  0.470   0.485   0.502   0.513   0.552   0.584   0.594   0.612
  0.635   0.636   0.642   0.656   0.662   0.676   0.679   0.693
  0.702   0.709   0.712   0.731   0.741   0.766   0.774   0.784
  0.793   0.807   0.811   0.826   0.833   0.868   0.881   0.919
  0.932   0.993   1.073   1.099   1.155   1.177   1.196   1.221
  1.258   1.277   1.292   1.338   1.363   1.379   1.407   1.427
  1.445   1.449   1.477   1.499   1.524   1.557   1.593   1.605
  1.670   1.716   1.730   1.777   1.824   1.862   1.891   1.907
  1.924   1.952   1.970   1.983   1.989   2.015   2.022   2.054
  2.081   2.113   2.122   2.133   2.153   2.216   2.248   2.274
  2.338   2.360   2.378   2.405   2.425   2.449   2.461   2.503
  2.531   2.536   2.558   2.567   2.600   2.617   2.653   2.678
  2.702   2.742   2.760   2.768   2.789   2.841   2.879   2.912
  2.939   2.979   3.010   3.023   3.098   3.128   3.187   3.261
  3.301   3.324   3.390   3.462   3.531   3.655   3.702   3.741
  3.818   3.881   3.968   4.894   4.972   5.013   5.055   5.142
  5.227   5.276   5.410   5.597
 --------------------------------------------------------------
 
          Ground-State Mulliken Net Atomic Charges

     Atom                 Charge (a.u.)
  ----------------------------------------
      1 C                     0.488369
      2 O                    -0.762879
      3 O                    -0.759029
      4 C                     0.402387
      5 C                    -0.856513
      6 O                    -0.802053
      7 C                     0.370586
      8 O                    -0.586646
      9 C                    -0.671281
     10 H                     0.231688
     11 H                     0.257896
     12 H                     0.154299
     13 H                     0.145443
     14 H                     0.244559
     15 H                     0.143174
  ----------------------------------------
  Sum of atomic charges =    -2.000000

 -----------------------------------------------------------------
                    Cartesian Multipole Moments
 -----------------------------------------------------------------
    Charge (ESU x 10^10)
                -9.6064
    Dipole Moment (Debye)
         X      -6.4277      Y       4.9885      Z      -5.0457
       Tot       9.5739
    Quadrupole Moments (Debye-Ang)
        XX     -93.1772     XY      -7.0123     YY     -84.3273
        XZ      -0.6293     YZ       6.4917     ZZ     -68.4146
    Octopole Moments (Debye-Ang^2)
       XXX     -24.9889    XXY      -4.3414    XYY     -11.4755
       YYY      13.0937    XXZ     -27.5341    XYZ       1.3198
       YYZ      -1.0170    XZZ       0.2978    YZZ       6.5001
       ZZZ      11.0264
    Hexadecapole Moments (Debye-Ang^3)
      XXXX    -909.6967   XXXY     -14.4249   XXYY    -241.1493
      XYYY      -8.9407   YYYY    -580.9750   XXXZ      -8.6855
      XXYZ       9.4772   XYYZ       1.2259   YYYZ       8.1529
      XXZZ    -214.3006   XYZZ       0.8786   YYZZ    -142.8236
      XZZZ      -5.2541   YZZZ      -8.5388   ZZZZ    -381.9076
 -----------------------------------------------------------------
 Calculating analytic gradient of the SCF energy
 Gradient of SCF Energy
            1           2           3           4           5           6
    1  -0.0984194   0.0332453   0.0646508  -0.0160282  -0.0249691   0.0174047
    2   0.0251128  -0.0022815  -0.0305149   0.0754055   0.0306988  -0.0353260
    3  -0.0404748   0.0144022   0.0429075  -0.0740744   0.0202316   0.0322752
            7           8           9          10          11          12
    1   0.0576714  -0.0441142   0.0176549   0.0052255   0.0181106  -0.0359256
    2   0.0830813  -0.0562218  -0.0194067  -0.0048518  -0.0196848  -0.0038826
    3  -0.0588757   0.0536643   0.0213416   0.0138105  -0.0108939  -0.0165650
           13          14          15
    1  -0.0132275   0.0132554   0.0054654
    2  -0.0204983  -0.0403274   0.0186976
    3  -0.0153000   0.0163492   0.0012016
 Max gradient component =       9.842E-02
 RMS gradient           =       3.800E-02
 Gradient time:  CPU 58.26 s  wall 58.28 s
 Geometry Optimization Parameters
   NAtoms,    NIC,     NZ,  NCons,   NDum,   NFix, NCnnct, MaxDiis
       15      95       0       0       0       0       0       0


** GEOMETRY OPTIMIZATION IN DELOCALIZED INTERNAL COORDINATES **
   Searching for a Minimum

   Optimization Cycle:   1

                       Coordinates (Angstroms)
     ATOM                X               Y               Z
      1  C         1.2830026172    0.3480087442    0.1757525102
      2  O         1.4934056190    1.5315674351   -0.1764184740
      3  O         2.1928813064   -0.2544305993    0.8960528699
      4  C         0.0033976121   -0.5007857955   -0.2671570292
      5  C        -0.1235337544   -0.7266461583   -1.7690346956
      6  O         0.1441290242   -1.7719361619    0.3350965849
      7  C        -1.2456791660    0.1558269821    0.2859187909
      8  O        -2.0389819342   -0.4731875828    1.0455215787
      9  C        -1.5093668175    1.5352694735   -0.0795784529
     10  H        -0.9793072782    1.7331128758   -0.9891326695
     11  H        -0.8498404139    2.0541798246    0.6022954141
     12  H        -2.6255809964    1.7483281599   -0.1940551011
     13  H        -1.0985184199   -1.1507776935   -2.1504155327
     14  H         0.5493344011   -1.6645924767   -1.7903454717
     15  H         0.2255176351    0.1536051048   -2.3557738550
   Point Group: c1    Number of degrees of freedom:    39


   Energy is   -492.099334547


 Attempting to Generate Delocalized Internal Coordinates

 39 Hessian modes will be used to form the next step
  Hessian Eigenvalues:
     0.002000    0.002136    0.005996    0.007107    0.011339    0.015634
     0.047125    0.050076    0.070283    0.074411    0.075270    0.089124
     0.094661    0.160000    0.160000    0.160000    0.160000    0.160000
     0.160000    0.193935    0.200091    0.239327    0.250000    0.250000
     0.250000    0.250000    0.283055    0.294230    0.299788    0.306126
     0.307884    0.321827    0.358385    0.370833    0.380882    0.434349
     0.651435    0.776970    0.822693

 Minimum Search - Taking Simple RFO Step
 Searching for Lamda that Minimizes Along All modes
 Value Taken    Lamda =  -0.08712452
 Calculated Step too Large.  Step scaled by  0.541527
 Step Taken.  Stepsize is  0.300000

                             Maximum     Tolerance    Cnvgd?
         Gradient           0.111942      0.000300      NO
         Displacement       0.124806      0.001200      NO
         Energy change     *********      0.000001      NO


 New Cartesian Coordinates Obtained by Inverse Iteration

 Displacement from previous Coordinates is:  0.444628
 ----------------------------------------------------------------
             Standard Nuclear Orientation (Angstroms)
    I     Atom           X                Y                Z
 ----------------------------------------------------------------
    1      C       1.2810380267     0.3261084123     0.1747515828
    2      O       1.3614798967     1.5086160397    -0.2312035819
    3      O       2.2031438999    -0.2040220392     0.8786404296
    4      C       0.0140896803    -0.5604217892    -0.2283007959
    5      C      -0.0926137578    -0.7394333767    -1.7521302566
    6      O       0.1256868254    -1.8269243596     0.3276862718
    7      C      -1.2480572659     0.1276489209     0.3034831886
    8      O      -2.0713977307    -0.4398391135     1.0309414376
    9      C      -1.4864352851     1.5385887653    -0.0775046886
   10      H      -0.9579241730     1.7492828575    -0.9924761273
   11      H      -0.8687925195     2.0975307413     0.6172172602
   12      H      -2.5730253738     1.7639461571    -0.1862696968
   13      H      -1.0749183002    -1.1211619609    -2.1065841415
   14      H       0.5660551292    -1.6427352411    -1.8629733556
   15      H       0.2425303825     0.1403581183    -2.3265510594
 ----------------------------------------------------------------
 Molecular Point Group                 C1    NOp =  1
 Largest Abelian Subgroup              C1    NOp =  1
 Nuclear Repulsion Energy =   455.0697472055 hartrees
 There are       35 alpha and       35 beta electrons
 Applying Cartesian multipole field
    Component          Value
    ---------          -----
     (2,0,0)        1.00000E-11
     (0,2,0)        2.00000E-11
     (0,0,2)       -3.00000E-11
 Nucleus-field energy     =     0.0000000051 hartrees
 Requested basis set is 6-31+G(d)
 There are 57 shells and 183 basis functions
 A cutoff of  1.0D-11 yielded   1557 shell pairs
 There are     16698 function pairs
 Smallest overlap matrix eigenvalue = 2.91E-05
 Guess MOs from SCF MO coefficient file
 Reading MOs from coefficient file
 Reading MOs from coefficient file
 A restricted Hartree-Fock SCF calculation will be
 performed using Pulay DIIS extrapolation
 SCF converges when DIIS error is below 1.0E-08
Geometry optimization detected.  Setting ReadMinima to 0
Setting SaveMinima to 0
 ---------------------------------------
  Cycle       Energy         DIIS Error
 ---------------------------------------
    1    -492.2079849182      3.77E-03
    2    -492.1349340064      6.87E-04
    3    -492.1367212791      4.64E-04
    4    -492.1374190633      9.22E-05
    5    -492.1374707045      3.51E-05
    6    -492.1374784513      1.14E-05
    7    -492.1374794140      4.86E-06
    8    -492.1374796562      2.07E-06
    9    -492.1374797051      7.01E-07
   10    -492.1374797137      3.23E-07
   11    -492.1374797157      1.54E-07
   12    -492.1374797163      6.88E-08
   13    -492.1374797164      3.06E-08
   14    -492.1374797164      1.11E-08
   15    -492.1374797164      4.76E-09 Convergence criterion met
 ---------------------------------------
 SCF time:  CPU 103.23 s  wall 102.53 s
 SCF   energy in the final basis set = -492.1374797164
 Total energy in the final basis set = -492.1374797164
 
 --------------------------------------------------------------
 
                    Orbital Energies (a.u.)
 --------------------------------------------------------------
 
 Alpha MOs
 -- Occupied --
-20.256 -20.172 -20.155 -20.089 -11.027 -10.996 -10.953 -10.947
-10.933  -1.072  -1.032  -0.914  -0.877  -0.745  -0.670  -0.554
 -0.441  -0.379  -0.341  -0.321  -0.313  -0.300  -0.270  -0.257
 -0.244  -0.222  -0.200  -0.186  -0.146  -0.102  -0.082  -0.049
 -0.048   0.005   0.017
 -- Virtual --
  0.275   0.290   0.317   0.335   0.345   0.352   0.361   0.369
  0.378   0.388   0.400   0.403   0.414   0.426   0.445   0.458
  0.468   0.489   0.499   0.514   0.559   0.589   0.613   0.614
  0.637   0.646   0.647   0.658   0.665   0.677   0.689   0.693
  0.704   0.710   0.715   0.733   0.739   0.766   0.778   0.787
  0.795   0.807   0.808   0.826   0.838   0.859   0.881   0.911
  0.937   1.015   1.081   1.123   1.166   1.180   1.198   1.225
  1.264   1.287   1.302   1.353   1.373   1.392   1.410   1.426
  1.445   1.452   1.475   1.515   1.533   1.569   1.605   1.610
  1.693   1.705   1.726   1.775   1.814   1.863   1.890   1.898
  1.930   1.956   1.972   1.983   1.993   2.020   2.034   2.055
  2.082   2.113   2.120   2.133   2.144   2.212   2.250   2.272
  2.324   2.352   2.376   2.400   2.422   2.441   2.490   2.514
  2.523   2.535   2.552   2.591   2.615   2.634   2.643   2.686
  2.710   2.731   2.774   2.788   2.837   2.855   2.896   2.935
  2.956   2.998   3.020   3.051   3.092   3.135   3.195   3.272
  3.317   3.355   3.406   3.460   3.577   3.677   3.731   3.775
  3.850   3.885   3.984   4.896   4.987   5.027   5.062   5.157
  5.235   5.307   5.427   5.598
 --------------------------------------------------------------
 
          Ground-State Mulliken Net Atomic Charges

     Atom                 Charge (a.u.)
  ----------------------------------------
      1 C                     0.524316
      2 O                    -0.768620
      3 O                    -0.759783
      4 C                     0.368915
      5 C                    -0.815004
      6 O                    -0.822667
      7 C                     0.388652
      8 O                    -0.581277
      9 C                    -0.685336
     10 H                     0.231996
     11 H                     0.245048
     12 H                     0.148766
     13 H                     0.142646
     14 H                     0.230395
     15 H                     0.151952
  ----------------------------------------
  Sum of atomic charges =    -2.000000

 -----------------------------------------------------------------
                    Cartesian Multipole Moments
 -----------------------------------------------------------------
    Charge (ESU x 10^10)
                -9.6064
    Dipole Moment (Debye)
         X      -5.7799      Y       4.8704      Z      -4.6044
       Tot       8.8504
    Quadrupole Moments (Debye-Ang)
        XX     -91.9532     XY      -6.4946     YY     -85.0800
        XZ      -0.4714     YZ       6.4819     ZZ     -67.8652
    Octopole Moments (Debye-Ang^2)
       XXX     -18.5200    XXY      -3.7703    XYY      -9.1759
       YYY      18.0837    XXZ     -26.5092    XYZ       1.4712
       YYZ      -0.5827    XZZ       1.4308    YZZ       6.8057
       ZZZ      11.8353
    Hexadecapole Moments (Debye-Ang^3)
      XXXX    -891.7227   XXXY      -7.5598   XXYY    -237.1152
      XYYY      -4.0951   YYYY    -593.2086   XXXZ      -4.1664
      XXYZ       9.1326   XYYZ       2.4569   YYYZ       9.2619
      XXZZ    -209.2833   XYZZ       0.9168   YYZZ    -143.6163
      XZZZ      -1.8696   YZZZ      -8.4500   ZZZZ    -373.3174
 -----------------------------------------------------------------
 Calculating analytic gradient of the SCF energy
 Gradient of SCF Energy
            1           2           3           4           5           6
    1  -0.0599516   0.0151717   0.0444176  -0.0134849  -0.0150148   0.0121144
    2   0.0129492  -0.0014444  -0.0177048   0.0626767   0.0192700  -0.0300286
    3  -0.0258607   0.0084830   0.0294352  -0.0531244   0.0143159   0.0206251
            7           8           9          10          11          12
    1   0.0365788  -0.0286337   0.0018233   0.0054332   0.0164375  -0.0194117
    2   0.0408626  -0.0283375  -0.0124596  -0.0017837  -0.0115246  -0.0027335
    3  -0.0310937   0.0306667   0.0184276   0.0074352  -0.0067199  -0.0133906
           13          14          15
    1  -0.0061351   0.0064136   0.0042416
    2  -0.0134088  -0.0272479   0.0109150
    3  -0.0087467   0.0084884   0.0010588
 Max gradient component =       6.268E-02
 RMS gradient           =       2.428E-02
 Gradient time:  CPU 58.37 s  wall 58.45 s
 Geometry Optimization Parameters
   NAtoms,    NIC,     NZ,  NCons,   NDum,   NFix, NCnnct, MaxDiis
       15      95       0       0       0       0       0       0

 Cartesian Hessian Update
 Hessian Updated using BFGS Update


** GEOMETRY OPTIMIZATION IN DELOCALIZED INTERNAL COORDINATES **
   Searching for a Minimum

   Optimization Cycle:   2

                       Coordinates (Angstroms)
     ATOM                X               Y               Z
      1  C         1.2810380267    0.3261084123    0.1747515828
      2  O         1.3614798967    1.5086160397   -0.2312035819
      3  O         2.2031438999   -0.2040220392    0.8786404296
      4  C         0.0140896803   -0.5604217892   -0.2283007959
      5  C        -0.0926137578   -0.7394333767   -1.7521302566
      6  O         0.1256868254   -1.8269243596    0.3276862718
      7  C        -1.2480572659    0.1276489209    0.3034831886
      8  O        -2.0713977307   -0.4398391135    1.0309414376
      9  C        -1.4864352851    1.5385887653   -0.0775046886
     10  H        -0.9579241730    1.7492828575   -0.9924761273
     11  H        -0.8687925195    2.0975307413    0.6172172602
     12  H        -2.5730253738    1.7639461571   -0.1862696968
     13  H        -1.0749183002   -1.1211619609   -2.1065841415
     14  H         0.5660551292   -1.6427352411   -1.8629733556
     15  H         0.2425303825    0.1403581183   -2.3265510594
   Point Group: c1    Number of degrees of freedom:    39


   Energy is   -492.137479716

 Hessian Updated using BFGS Update

 34 Hessian modes will be used to form the next step
  Hessian Eigenvalues:
     0.002001    0.002164    0.005992    0.007098    0.011325    0.015640
     0.047127    0.054461    0.069890    0.074079    0.074774    0.087275
     0.097243    0.155967    0.161555    0.189825    0.203505    0.238907
     0.240302    0.250000    0.271328    0.287433    0.298008    0.301910
     0.306487    0.317894    0.323319    0.359578    0.370359    0.373466
     0.419838    0.605352    0.764033    0.823715

 Minimum Search - Taking Simple RFO Step
 Searching for Lamda that Minimizes Along All modes
 Value Taken    Lamda =  -0.04728819
 Calculated Step too Large.  Step scaled by  0.590703
 Step Taken.  Stepsize is  0.300000

                             Maximum     Tolerance    Cnvgd?
         Gradient           0.069601      0.000300      NO
         Displacement       0.099397      0.001200      NO
         Energy change     -0.038145      0.000001      NO


 New Cartesian Coordinates Obtained by Inverse Iteration

 Displacement from previous Coordinates is:  0.482151
 ----------------------------------------------------------------
             Standard Nuclear Orientation (Angstroms)
    I     Atom           X                Y                Z
 ----------------------------------------------------------------
    1      C       1.3216739152     0.2777008880     0.1828506338
    2      O       1.3824722909     1.4356834748    -0.2977994136
    3      O       2.2260708967    -0.2387091024     0.8536529471
    4      C       0.0383082573    -0.6055304594    -0.1806618843
    5      C      -0.0602051002    -0.7314421521    -1.7264381093
    6      O       0.0971843630    -1.8464944156     0.3514404924
    7      C      -1.2377500960     0.1210904464     0.3174209483
    8      O      -2.0641930503    -0.4153404553     1.0211578213
    9      C      -1.5098862816     1.5459126069    -0.0965933319
   10      H      -1.0104928547     1.7760654865    -1.0259110362
   11      H      -0.9655248572     2.1731915602     0.5997690299
   12      H      -2.5868440809     1.7267250092    -0.1739862562
   13      H      -1.0584688274    -1.0541258699    -2.0552303086
   14      H       0.5770897056    -1.5989140008    -1.9226319518
   15      H       0.2714251542     0.1517291155    -2.2783131139
 ----------------------------------------------------------------
 Molecular Point Group                 C1    NOp =  1
 Largest Abelian Subgroup              C1    NOp =  1
 Nuclear Repulsion Energy =   456.0675695268 hartrees
 There are       35 alpha and       35 beta electrons
 Applying Cartesian multipole field
    Component          Value
    ---------          -----
     (2,0,0)        1.00000E-11
     (0,2,0)        2.00000E-11
     (0,0,2)       -3.00000E-11
 Nucleus-field energy     =     0.0000000052 hartrees
 Requested basis set is 6-31+G(d)
 There are 57 shells and 183 basis functions
 A cutoff of  1.0D-11 yielded   1557 shell pairs
 There are     16663 function pairs
 Smallest overlap matrix eigenvalue = 2.76E-05
 Guess MOs from SCF MO coefficient file
 Reading MOs from coefficient file
 Reading MOs from coefficient file
 A restricted Hartree-Fock SCF calculation will be
 performed using Pulay DIIS extrapolation
 SCF converges when DIIS error is below 1.0E-08
Geometry optimization detected.  Setting ReadMinima to 0
Setting SaveMinima to 0
 ---------------------------------------
  Cycle       Energy         DIIS Error
 ---------------------------------------
    1    -492.2271738368      2.92E-03
    2    -492.1558098023      5.58E-04
    3    -492.1571538326      3.52E-04
    4    -492.1575865847      8.05E-05
    5    -492.1576380357      3.32E-05
    6    -492.1576484198      1.27E-05
    7    -492.1576503795      5.82E-06
    8    -492.1576509123      2.69E-06
    9    -492.1576510104      8.73E-07
   10    -492.1576510235      3.38E-07
   11    -492.1576510255      1.70E-07
   12    -492.1576510259      7.55E-08
   13    -492.1576510256      3.39E-08
   14    -492.1576510256      1.22E-08
   15    -492.1576510258      4.78E-09 Convergence criterion met
 ---------------------------------------
 SCF time:  CPU 103.66 s  wall 102.91 s
 SCF   energy in the final basis set = -492.1576510258
 Total energy in the final basis set = -492.1576510258
 
 --------------------------------------------------------------
 
                    Orbital Energies (a.u.)
 --------------------------------------------------------------
 
 Alpha MOs
 -- Occupied --
-20.256 -20.165 -20.159 -20.090 -11.021 -10.988 -10.950 -10.943
-10.921  -1.088  -1.037  -0.925  -0.891  -0.732  -0.668  -0.548
 -0.438  -0.378  -0.333  -0.323  -0.312  -0.298  -0.270  -0.259
 -0.243  -0.230  -0.202  -0.194  -0.157  -0.102  -0.084  -0.053
 -0.051   0.005   0.020
 -- Virtual --
  0.276   0.292   0.318   0.334   0.348   0.354   0.362   0.370
  0.378   0.389   0.400   0.403   0.414   0.424   0.448   0.459
  0.468   0.484   0.502   0.515   0.566   0.593   0.615   0.621
  0.636   0.648   0.656   0.663   0.668   0.676   0.693   0.697
  0.703   0.713   0.717   0.736   0.738   0.762   0.780   0.790
  0.797   0.807   0.814   0.826   0.847   0.859   0.883   0.905
  0.940   1.039   1.083   1.147   1.171   1.183   1.204   1.233
  1.267   1.293   1.308   1.366   1.387   1.392   1.422   1.424
  1.447   1.457   1.479   1.524   1.540   1.582   1.611   1.621
  1.695   1.716   1.723   1.781   1.804   1.865   1.886   1.892
  1.933   1.954   1.972   1.986   1.997   2.024   2.034   2.055
  2.078   2.104   2.120   2.130   2.141   2.204   2.240   2.269
  2.317   2.348   2.377   2.397   2.418   2.431   2.511   2.514
  2.516   2.535   2.559   2.595   2.623   2.633   2.647   2.687
  2.714   2.740   2.781   2.815   2.857   2.878   2.905   2.958
  2.976   3.014   3.041   3.076   3.094   3.150   3.214   3.277
  3.331   3.378   3.436   3.472   3.619   3.701   3.760   3.804
  3.894   3.901   4.004   4.899   4.994   5.044   5.063   5.172
  5.235   5.338   5.446   5.602
 --------------------------------------------------------------
 
          Ground-State Mulliken Net Atomic Charges

     Atom                 Charge (a.u.)
  ----------------------------------------
      1 C                     0.539889
      2 O                    -0.784594
      3 O                    -0.741852
      4 C                     0.323308
      5 C                    -0.764349
      6 O                    -0.829274
      7 C                     0.404443
      8 O                    -0.563097
      9 C                    -0.701082
     10 H                     0.223404
     11 H                     0.225543
     12 H                     0.149003
     13 H                     0.138193
     14 H                     0.215590
     15 H                     0.164877
  ----------------------------------------
  Sum of atomic charges =    -2.000000

 -----------------------------------------------------------------
                    Cartesian Multipole Moments
 -----------------------------------------------------------------
    Charge (ESU x 10^10)
                -9.6064
    Dipole Moment (Debye)
         X      -5.6875      Y       4.8755      Z      -4.0978
       Tot       8.5387
    Quadrupole Moments (Debye-Ang)
        XX     -91.6330     XY      -6.3097     YY     -84.8946
        XZ      -0.1312     YZ       6.9273     ZZ     -67.6091
    Octopole Moments (Debye-Ang^2)
       XXX     -20.8790    XXY      -3.5063    XYY      -8.8563
       YYY      23.0858    XXZ     -24.5824    XYZ       2.4116
       YYZ      -0.1776    XZZ       1.2760    YZZ       7.8699
       ZZZ      12.7889
    Hexadecapole Moments (Debye-Ang^3)
      XXXX    -901.5393   XXXY       0.4888   XXYY    -237.8438
      XYYY       2.9467   YYYY    -588.6346   XXXZ      -1.2905
      XXYZ      12.6271   XYYZ       3.1407   YYYZ      15.2698
      XXZZ    -208.5495   XYZZ       2.2994   YYZZ    -142.9872
      XZZZ       0.8476   YZZZ      -3.7633   ZZZZ    -366.6089
 -----------------------------------------------------------------
 Calculating analytic gradient of the SCF energy
 Gradient of SCF Energy
            1           2           3           4           5           6
    1  -0.0219100   0.0101616   0.0121408  -0.0077535  -0.0045202   0.0065669
    2   0.0034581  -0.0059547  -0.0035974   0.0368651   0.0063667  -0.0142734
    3   0.0014230   0.0032991   0.0031164  -0.0325483   0.0072698   0.0117809
            7           8           9          10          11          12
    1   0.0105318  -0.0045074  -0.0097486   0.0038404   0.0105893  -0.0060258
    2   0.0107914  -0.0076574  -0.0049305   0.0004217  -0.0054096  -0.0031603
    3  -0.0064768   0.0059279   0.0133745   0.0046527  -0.0055521  -0.0079618
           13          14          15
    1  -0.0010384  -0.0014778   0.0031511
    2  -0.0065573  -0.0102368   0.0038743
    3  -0.0032981   0.0041050   0.0008880
 Max gradient component =       3.687E-02
 RMS gradient           =       1.054E-02
 Gradient time:  CPU 58.19 s  wall 58.18 s
 Geometry Optimization Parameters
   NAtoms,    NIC,     NZ,  NCons,   NDum,   NFix, NCnnct, MaxDiis
       15      95       0       0       0       0       0       0

 Cartesian Hessian Update
 Hessian Updated using BFGS Update


** GEOMETRY OPTIMIZATION IN DELOCALIZED INTERNAL COORDINATES **
   Searching for a Minimum

   Optimization Cycle:   3

                       Coordinates (Angstroms)
     ATOM                X               Y               Z
      1  C         1.3216739152    0.2777008880    0.1828506338
      2  O         1.3824722909    1.4356834748   -0.2977994136
      3  O         2.2260708967   -0.2387091024    0.8536529471
      4  C         0.0383082573   -0.6055304594   -0.1806618843
      5  C        -0.0602051002   -0.7314421521   -1.7264381093
      6  O         0.0971843630   -1.8464944156    0.3514404924
      7  C        -1.2377500960    0.1210904464    0.3174209483
      8  O        -2.0641930503   -0.4153404553    1.0211578213
      9  C        -1.5098862816    1.5459126069   -0.0965933319
     10  H        -1.0104928547    1.7760654865   -1.0259110362
     11  H        -0.9655248572    2.1731915602    0.5997690299
     12  H        -2.5868440809    1.7267250092   -0.1739862562
     13  H        -1.0584688274   -1.0541258699   -2.0552303086
     14  H         0.5770897056   -1.5989140008   -1.9226319518
     15  H         0.2714251542    0.1517291155   -2.2783131139
   Point Group: c1    Number of degrees of freedom:    39


   Energy is   -492.157651026

 Hessian Updated using BFGS Update

 36 Hessian modes will be used to form the next step
  Hessian Eigenvalues:
     0.002010    0.002287    0.005994    0.007287    0.011496    0.015649
     0.047481    0.049876    0.070209    0.074480    0.074571    0.086606
     0.096506    0.159111    0.160190    0.164329    0.197344    0.204028
     0.238922    0.248657    0.250000    0.253984    0.281206    0.287810
     0.292397    0.301234    0.306226    0.315021    0.322292    0.359366
     0.367113    0.372072    0.420569    0.654740    0.787184    0.834562

 Minimum Search - Taking Simple RFO Step
 Searching for Lamda that Minimizes Along All modes
 Value Taken    Lamda =  -0.01991267
 Calculated Step too Large.  Step scaled by  0.493943
 Step Taken.  Stepsize is  0.300000

                             Maximum     Tolerance    Cnvgd?
         Gradient           0.022068      0.000300      NO
         Displacement       0.141329      0.001200      NO
         Energy change     -0.020171      0.000001      NO


 New Cartesian Coordinates Obtained by Inverse Iteration

 Displacement from previous Coordinates is:  0.379547
 ----------------------------------------------------------------
             Standard Nuclear Orientation (Angstroms)
    I     Atom           X                Y                Z
 ----------------------------------------------------------------
    1      C       1.3242802928     0.2602413967     0.1635526327
    2      O       1.2779130644     1.4449433664    -0.2605338137
    3      O       2.2100052472    -0.1943430643     0.8845754341
    4      C       0.0522987426    -0.6587982202    -0.1608111564
    5      C      -0.0658129569    -0.7334011877    -1.7193434188
    6      O       0.0982347024    -1.8866453382     0.3529667397
    7      C      -1.2199050003     0.1041721593     0.3199934178
    8      O      -2.0570702623    -0.3958031195     1.0294055904
    9      C      -1.4674152323     1.5384500920    -0.1229484869
   10      H      -0.9859387171     1.7529756968    -1.0664987170
   11      H      -0.9481842060     2.1860393618     0.5743279577
   12      H      -2.5397843087     1.7286814209    -0.1715439056
   13      H      -1.0749877742    -1.0338371314    -2.0265625672
   14      H       0.5798330861    -1.5672879557    -1.9845599875
   15      H       0.2373927572     0.1721546553    -2.2432932525
 ----------------------------------------------------------------
 Molecular Point Group                 C1    NOp =  1
 Largest Abelian Subgroup              C1    NOp =  1
 Nuclear Repulsion Energy =   457.4771014174 hartrees
 There are       35 alpha and       35 beta electrons
 Applying Cartesian multipole field
    Component          Value
    ---------          -----
     (2,0,0)        1.00000E-11
     (0,2,0)        2.00000E-11
     (0,0,2)       -3.00000E-11
 Nucleus-field energy     =     0.0000000051 hartrees
 Requested basis set is 6-31+G(d)
 There are 57 shells and 183 basis functions
 A cutoff of  1.0D-11 yielded   1557 shell pairs
 There are     16695 function pairs
 Smallest overlap matrix eigenvalue = 2.67E-05
 Guess MOs from SCF MO coefficient file
 Reading MOs from coefficient file
 Reading MOs from coefficient file
 A restricted Hartree-Fock SCF calculation will be
 performed using Pulay DIIS extrapolation
 SCF converges when DIIS error is below 1.0E-08
Geometry optimization detected.  Setting ReadMinima to 0
Setting SaveMinima to 0
 ---------------------------------------
  Cycle       Energy         DIIS Error
 ---------------------------------------
    1    -492.1784160519      2.73E-03
    2    -492.1610158565      5.37E-04
    3    -492.1622518118      3.81E-04
    4    -492.1627473786      7.44E-05
    5    -492.1628037048      2.55E-05
    6    -492.1628096645      1.23E-05
    7    -492.1628117450      5.69E-06
    8    -492.1628123435      2.14E-06
    9    -492.1628124118      6.21E-07
   10    -492.1628124182      2.44E-07
   11    -492.1628124194      1.24E-07
   12    -492.1628124198      5.95E-08
   13    -492.1628124195      2.06E-08
   14    -492.1628124197      8.33E-09 Convergence criterion met
 ---------------------------------------
 SCF time:  CPU 97.21 s  wall 96.72 s
 SCF   energy in the final basis set = -492.1628124197
 Total energy in the final basis set = -492.1628124197
 
 --------------------------------------------------------------
 
                    Orbital Energies (a.u.)
 --------------------------------------------------------------
 
 Alpha MOs
 -- Occupied --
-20.255 -20.163 -20.163 -20.095 -11.019 -10.987 -10.944 -10.944
-10.918  -1.090  -1.040  -0.930  -0.902  -0.724  -0.667  -0.545
 -0.436  -0.377  -0.326  -0.322  -0.312  -0.298  -0.267  -0.260
 -0.241  -0.233  -0.203  -0.196  -0.164  -0.103  -0.087  -0.058
 -0.054   0.003   0.019
 -- Virtual --
  0.278   0.293   0.319   0.335   0.350   0.355   0.364   0.371
  0.376   0.390   0.401   0.403   0.415   0.422   0.448   0.460
  0.467   0.479   0.505   0.513   0.570   0.591   0.619   0.633
  0.637   0.648   0.661   0.662   0.669   0.676   0.694   0.700
  0.703   0.714   0.722   0.734   0.740   0.760   0.778   0.789
  0.799   0.805   0.815   0.826   0.850   0.861   0.877   0.898
  0.939   1.044   1.081   1.156   1.175   1.189   1.212   1.241
  1.268   1.297   1.314   1.373   1.385   1.402   1.423   1.429
  1.444   1.464   1.480   1.533   1.544   1.588   1.613   1.622
  1.690   1.723   1.729   1.784   1.795   1.862   1.884   1.894
  1.936   1.956   1.970   1.976   1.996   2.020   2.038   2.059
  2.079   2.104   2.114   2.138   2.144   2.210   2.237   2.263
  2.310   2.339   2.376   2.395   2.422   2.429   2.505   2.512
  2.534   2.551   2.564   2.606   2.618   2.638   2.648   2.682
  2.711   2.733   2.781   2.823   2.867   2.903   2.915   2.972
  2.981   3.019   3.043   3.091   3.102   3.145   3.208   3.297
  3.332   3.386   3.443   3.465   3.629   3.705   3.757   3.826
  3.902   3.918   4.001   4.905   5.000   5.054   5.076   5.184
  5.237   5.337   5.487   5.589
 --------------------------------------------------------------
 
          Ground-State Mulliken Net Atomic Charges

     Atom                 Charge (a.u.)
  ----------------------------------------
      1 C                     0.553347
      2 O                    -0.782529
      3 O                    -0.737925
      4 C                     0.276413
      5 C                    -0.733120
      6 O                    -0.832710
      7 C                     0.408446
      8 O                    -0.564957
      9 C                    -0.685072
     10 H                     0.218090
     11 H                     0.225656
     12 H                     0.143671
     13 H                     0.139184
     14 H                     0.203144
     15 H                     0.168361
  ----------------------------------------
  Sum of atomic charges =    -2.000000

 -----------------------------------------------------------------
                    Cartesian Multipole Moments
 -----------------------------------------------------------------
    Charge (ESU x 10^10)
                -9.6064
    Dipole Moment (Debye)
         X      -5.1798      Y       4.6957      Z      -4.2168
       Tot       8.1646
    Quadrupole Moments (Debye-Ang)
        XX     -90.4765     XY      -5.9568     YY     -85.5412
        XZ      -0.7371     YZ       6.4760     ZZ     -67.8736
    Octopole Moments (Debye-Ang^2)
       XXX     -16.0670    XXY      -3.2735    XYY      -8.0338
       YYY      25.6456    XXZ     -25.4232    XYZ       1.6811
       YYZ      -0.4891    XZZ       1.7676    YZZ       8.3539
       ZZZ      12.1972
    Hexadecapole Moments (Debye-Ang^3)
      XXXX    -874.1435   XXXY       3.7402   XXYY    -233.8080
      XYYY       4.0740   YYYY    -600.0768   XXXZ      -6.7149
      XXYZ      11.4189   XYYZ       0.9952   YYYZ      15.1342
      XXZZ    -205.5536   XYZZ       1.8676   YYZZ    -144.9354
      XZZZ      -2.7426   YZZZ      -4.8628   ZZZZ    -368.9108
 -----------------------------------------------------------------
 Calculating analytic gradient of the SCF energy
 Gradient of SCF Energy
            1           2           3           4           5           6
    1   0.0071059  -0.0029945  -0.0044158  -0.0080055   0.0002339   0.0032992
    2  -0.0105086   0.0028279   0.0038813   0.0191104   0.0045142  -0.0064645
    3  -0.0178281   0.0088308   0.0053845  -0.0119962   0.0048425   0.0070248
            7           8           9          10          11          12
    1   0.0018516   0.0002523  -0.0060913   0.0040449   0.0066590  -0.0011882
    2  -0.0001854  -0.0014591  -0.0021737   0.0000186  -0.0022495  -0.0016457
    3  -0.0032512   0.0014256   0.0088576   0.0012146  -0.0027151  -0.0043300
           13          14          15
    1  -0.0007690  -0.0021914   0.0022088
    2  -0.0029860  -0.0042177   0.0015378
    3  -0.0008556   0.0026239   0.0007718
 Max gradient component =       1.911E-02
 RMS gradient           =       6.037E-03
 Gradient time:  CPU 58.52 s  wall 58.56 s
 Geometry Optimization Parameters
   NAtoms,    NIC,     NZ,  NCons,   NDum,   NFix, NCnnct, MaxDiis
       15      95       0       0       0       0       0       0

 Cartesian Hessian Update
 Hessian Updated using BFGS Update


** GEOMETRY OPTIMIZATION IN DELOCALIZED INTERNAL COORDINATES **
   Searching for a Minimum

   Optimization Cycle:   4

                       Coordinates (Angstroms)
     ATOM                X               Y               Z
      1  C         1.3242802928    0.2602413967    0.1635526327
      2  O         1.2779130644    1.4449433664   -0.2605338137
      3  O         2.2100052472   -0.1943430643    0.8845754341
      4  C         0.0522987426   -0.6587982202   -0.1608111564
      5  C        -0.0658129569   -0.7334011877   -1.7193434188
      6  O         0.0982347024   -1.8866453382    0.3529667397
      7  C        -1.2199050003    0.1041721593    0.3199934178
      8  O        -2.0570702623   -0.3958031195    1.0294055904
      9  C        -1.4674152323    1.5384500920   -0.1229484869
     10  H        -0.9859387171    1.7529756968   -1.0664987170
     11  H        -0.9481842060    2.1860393618    0.5743279577
     12  H        -2.5397843087    1.7286814209   -0.1715439056
     13  H        -1.0749877742   -1.0338371314   -2.0265625672
     14  H         0.5798330861   -1.5672879557   -1.9845599875
     15  H         0.2373927572    0.1721546553   -2.2432932525
   Point Group: c1    Number of degrees of freedom:    39


   Energy is   -492.162812420

 Hessian Updated using BFGS Update

 37 Hessian modes will be used to form the next step
  Hessian Eigenvalues:
     0.002015    0.004494    0.006594    0.007185    0.011609    0.015667
     0.047169    0.067068    0.072351    0.074375    0.081176    0.083242
     0.095737    0.154167    0.160150    0.160968    0.161548    0.196561
     0.204319    0.234361    0.244131    0.250000    0.251880    0.278172
     0.288808    0.296706    0.304380    0.307269    0.320804    0.338445
     0.360881    0.362157    0.376106    0.419112    0.663950    0.790477
     0.834527

 Minimum Search - Taking Simple RFO Step
 Searching for Lamda that Minimizes Along All modes
 Value Taken    Lamda =  -0.01912458
 Calculated Step too Large.  Step scaled by  0.354858
 Step Taken.  Stepsize is  0.300000

                             Maximum     Tolerance    Cnvgd?
         Gradient           0.013053      0.000300      NO
         Displacement       0.138033      0.001200      NO
         Energy change     -0.005161      0.000001      NO


 New Cartesian Coordinates Obtained by Inverse Iteration

 Displacement from previous Coordinates is:  0.358834
 ----------------------------------------------------------------
             Standard Nuclear Orientation (Angstroms)
    I     Atom           X                Y                Z
 ----------------------------------------------------------------
    1      C       1.3104282279     0.2532933450     0.1993531881
    2      O       1.2561948594     1.3974229706    -0.3328795691
    3      O       2.2474933041    -0.1971119485     0.8472911825
    4      C       0.0567815809    -0.7008104758    -0.1183702279
    5      C      -0.0550743836    -0.7176209322    -1.6925675312
    6      O       0.0857923140    -1.9225573083     0.3614519866
    7      C      -1.2230897480     0.0906323513     0.3325228400
    8      O      -2.0837924954    -0.3805576215     1.0291827236
    9      C      -1.4533424376     1.5313785748    -0.1448819965
   10      H      -0.9814046150     1.7370038818    -1.0962190940
   11      H      -0.9786786798     2.2060325719     0.5598034146
   12      H      -2.5229012334     1.7206706729    -0.1804060588
   13      H      -1.0686409651    -0.9959892723    -1.9966502584
   14      H       0.6026287005    -1.5145089488    -2.0191096691
   15      H       0.2284650058     0.2102642712    -2.1797944635
 ----------------------------------------------------------------
 Molecular Point Group                 C1    NOp =  1
 Largest Abelian Subgroup              C1    NOp =  1
 Nuclear Repulsion Energy =   457.4768543468 hartrees
 There are       35 alpha and       35 beta electrons
 Applying Cartesian multipole field
    Component          Value
    ---------          -----
     (2,0,0)        1.00000E-11
     (0,2,0)        2.00000E-11
     (0,0,2)       -3.00000E-11
 Nucleus-field energy     =     0.0000000052 hartrees
 Requested basis set is 6-31+G(d)
 There are 57 shells and 183 basis functions
 A cutoff of  1.0D-11 yielded   1557 shell pairs
 There are     16692 function pairs
 Smallest overlap matrix eigenvalue = 2.59E-05
 Guess MOs from SCF MO coefficient file
 Reading MOs from coefficient file
 Reading MOs from coefficient file
 A restricted Hartree-Fock SCF calculation will be
 performed using Pulay DIIS extrapolation
 SCF converges when DIIS error is below 1.0E-08
Geometry optimization detected.  Setting ReadMinima to 0
Setting SaveMinima to 0
 ---------------------------------------
  Cycle       Energy         DIIS Error
 ---------------------------------------
    1    -492.1720045764      2.65E-03
    2    -492.1634771121      4.92E-04
    3    -492.1646603845      3.32E-04
    4    -492.1650544488      7.77E-05
    5    -492.1651159851      2.45E-05
    6    -492.1651222386      1.26E-05
    7    -492.1651245256      5.77E-06
    8    -492.1651250940      1.85E-06
    9    -492.1651251377      5.09E-07
   10    -492.1651251407      1.64E-07
   11    -492.1651251412      7.51E-08
   12    -492.1651251411      3.00E-08
   13    -492.1651251407      1.07E-08
   14    -492.1651251406      3.99E-09 Convergence criterion met
 ---------------------------------------
 SCF time:  CPU 96.11 s  wall 95.58 s
 SCF   energy in the final basis set = -492.1651251406
 Total energy in the final basis set = -492.1651251406
 
 --------------------------------------------------------------
 
                    Orbital Energies (a.u.)
 --------------------------------------------------------------
 
 Alpha MOs
 -- Occupied --
-20.256 -20.167 -20.162 -20.101 -11.018 -10.988 -10.946 -10.943
-10.913  -1.092  -1.041  -0.933  -0.913  -0.720  -0.665  -0.544
 -0.435  -0.376  -0.323  -0.320  -0.310  -0.299  -0.265  -0.260
 -0.240  -0.234  -0.203  -0.198  -0.171  -0.106  -0.091  -0.061
 -0.057   0.002   0.019
 -- Virtual --
  0.279   0.295   0.320   0.334   0.352   0.357   0.365   0.372
  0.374   0.392   0.401   0.404   0.415   0.422   0.448   0.458
  0.468   0.474   0.510   0.515   0.569   0.592   0.615   0.634
  0.638   0.648   0.662   0.668   0.670   0.676   0.693   0.698
  0.708   0.714   0.720   0.735   0.738   0.756   0.777   0.785
  0.796   0.804   0.819   0.825   0.844   0.870   0.876   0.889
  0.934   1.053   1.075   1.157   1.178   1.189   1.213   1.247
  1.266   1.302   1.319   1.376   1.380   1.407   1.419   1.427
  1.450   1.464   1.488   1.536   1.547   1.591   1.623   1.627
  1.694   1.725   1.736   1.781   1.788   1.866   1.883   1.889
  1.935   1.956   1.971   1.988   2.004   2.015   2.034   2.057
  2.068   2.096   2.114   2.128   2.146   2.207   2.231   2.265
  2.302   2.333   2.377   2.382   2.416   2.429   2.503   2.503
  2.533   2.557   2.561   2.604   2.618   2.633   2.649   2.673
  2.711   2.751   2.779   2.826   2.846   2.899   2.935   2.978
  2.979   3.026   3.060   3.086   3.107   3.140   3.219   3.286
  3.332   3.389   3.447   3.464   3.631   3.711   3.758   3.838
  3.916   3.925   4.004   4.912   5.006   5.056   5.078   5.187
  5.238   5.376   5.467   5.602
 --------------------------------------------------------------
 
          Ground-State Mulliken Net Atomic Charges

     Atom                 Charge (a.u.)
  ----------------------------------------
      1 C                     0.571624
      2 O                    -0.775421
      3 O                    -0.742493
      4 C                     0.214333
      5 C                    -0.694503
      6 O                    -0.832933
      7 C                     0.429728
      8 O                    -0.570237
      9 C                    -0.686618
     10 H                     0.218013
     11 H                     0.214775
     12 H                     0.143244
     13 H                     0.137755
     14 H                     0.192329
     15 H                     0.180404
  ----------------------------------------
  Sum of atomic charges =    -2.000000

 -----------------------------------------------------------------
                    Cartesian Multipole Moments
 -----------------------------------------------------------------
    Charge (ESU x 10^10)
                -9.6064
    Dipole Moment (Debye)
         X      -5.0437      Y       4.8111      Z      -3.8244
       Tot       7.9506
    Quadrupole Moments (Debye-Ang)
        XX     -91.3134     XY      -5.6590     YY     -85.4618
        XZ      -0.1353     YZ       6.7957     ZZ     -67.7013
    Octopole Moments (Debye-Ang^2)
       XXX     -15.8270    XXY      -2.3991    XYY      -6.9463
       YYY      29.7556    XXZ     -24.7901    XYZ       2.0988
       YYZ      -0.2751    XZZ       2.3165    YZZ       9.0826
       ZZZ      12.3213
    Hexadecapole Moments (Debye-Ang^3)
      XXXX    -889.3344   XXXY       6.8734   XXYY    -233.1255
      XYYY       7.2428   YYYY    -600.6615   XXXZ      -2.7271
      XXYZ      13.9887   XYYZ       2.0591   YYYZ      20.6490
      XXZZ    -205.7725   XYZZ       2.1753   YYZZ    -144.4685
      XZZZ       0.1899   YZZZ      -0.3540   ZZZZ    -363.2624
 -----------------------------------------------------------------
 Calculating analytic gradient of the SCF energy
 Gradient of SCF Energy
            1           2           3           4           5           6
    1   0.0016701  -0.0046843  -0.0043272   0.0003702   0.0012924   0.0009769
    2  -0.0020145   0.0034902   0.0003910  -0.0038265   0.0014305   0.0018370
    3   0.0156868  -0.0076865  -0.0072014  -0.0039649   0.0029409  -0.0004060
            7           8           9          10          11          12
    1  -0.0020277   0.0026909  -0.0032831   0.0034472   0.0020582   0.0026429
    2  -0.0048419   0.0020741  -0.0001035   0.0001049   0.0000825  -0.0002371
    3   0.0022610  -0.0026842   0.0037217  -0.0019072  -0.0006317  -0.0011824
           13          14          15
    1  -0.0000546  -0.0022076   0.0014358
    2   0.0007642   0.0004757   0.0003732
    3   0.0003668   0.0008043  -0.0001172
 Max gradient component =       1.569E-02
 RMS gradient           =       3.583E-03
 Gradient time:  CPU 58.76 s  wall 58.80 s
 Geometry Optimization Parameters
   NAtoms,    NIC,     NZ,  NCons,   NDum,   NFix, NCnnct, MaxDiis
       15      95       0       0       0       0       0       0

 Cartesian Hessian Update
 Hessian Updated using BFGS Update


** GEOMETRY OPTIMIZATION IN DELOCALIZED INTERNAL COORDINATES **
   Searching for a Minimum

   Optimization Cycle:   5

                       Coordinates (Angstroms)
     ATOM                X               Y               Z
      1  C         1.3104282279    0.2532933450    0.1993531881
      2  O         1.2561948594    1.3974229706   -0.3328795691
      3  O         2.2474933041   -0.1971119485    0.8472911825
      4  C         0.0567815809   -0.7008104758   -0.1183702279
      5  C        -0.0550743836   -0.7176209322   -1.6925675312
      6  O         0.0857923140   -1.9225573083    0.3614519866
      7  C        -1.2230897480    0.0906323513    0.3325228400
      8  O        -2.0837924954   -0.3805576215    1.0291827236
      9  C        -1.4533424376    1.5313785748   -0.1448819965
     10  H        -0.9814046150    1.7370038818   -1.0962190940
     11  H        -0.9786786798    2.2060325719    0.5598034146
     12  H        -2.5229012334    1.7206706729   -0.1804060588
     13  H        -1.0686409651   -0.9959892723   -1.9966502584
     14  H         0.6026287005   -1.5145089488   -2.0191096691
     15  H         0.2284650058    0.2102642712   -2.1797944635
   Point Group: c1    Number of degrees of freedom:    39


   Energy is   -492.165125141

 Hessian Updated using BFGS Update

 38 Hessian modes will be used to form the next step
  Hessian Eigenvalues:
     0.002011    0.005989    0.007017    0.011090    0.015621    0.045808
     0.057958    0.071503    0.074094    0.077152    0.080863    0.093013
     0.099518    0.148308    0.160027    0.160331    0.160476    0.161485
     0.195726    0.204247    0.223136    0.243093    0.250327    0.251324
     0.275495    0.288366    0.296984    0.304453    0.305833    0.321010
     0.343432    0.360177    0.366764    0.388020    0.419753    0.664921
     0.797781    0.835568

 Minimum Search - Taking Simple RFO Step
 Searching for Lamda that Minimizes Along All modes
 Value Taken    Lamda =  -0.00543365
 Calculated Step too Large.  Step scaled by  0.708562
 Step Taken.  Stepsize is  0.300000

                             Maximum     Tolerance    Cnvgd?
         Gradient           0.019018      0.000300      NO
         Displacement       0.126431      0.001200      NO
         Energy change     -0.002313      0.000001      NO


 New Cartesian Coordinates Obtained by Inverse Iteration

 Displacement from previous Coordinates is:  0.635537
 ----------------------------------------------------------------
             Standard Nuclear Orientation (Angstroms)
    I     Atom           X                Y                Z
 ----------------------------------------------------------------
    1      C       1.3871443934     0.1974972756     0.2123696100
    2      O       1.4032188216     1.3481944457    -0.3044572290
    3      O       2.2703561279    -0.2897626957     0.9127637060
    4      C       0.0770742516    -0.6896482402    -0.1152846288
    5      C      -0.0428375777    -0.7046099395    -1.7004881995
    6      O       0.0585324485    -1.9150701960     0.3374814346
    7      C      -1.1986314436     0.1240505726     0.3540811482
    8      O      -2.0370408151    -0.3411829972     1.0813848362
    9      C      -1.5121812353     1.5407480886    -0.1712687429
   10      H      -1.1219137954     1.7397296608    -1.1579296758
   11      H      -1.0585006225     2.2720455186     0.4896876118
   12      H      -2.5900086863     1.6762042277    -0.1369872903
   13      H      -1.0585227190    -0.9798998928    -1.9920597416
   14      H       0.6210691730    -1.4855523246    -2.0515549616
   15      H       0.2231011135     0.2247986284    -2.1890114103
 ----------------------------------------------------------------
 Molecular Point Group                 C1    NOp =  1
 Largest Abelian Subgroup              C1    NOp =  1
 Nuclear Repulsion Energy =   454.1632615216 hartrees
 There are       35 alpha and       35 beta electrons
 Applying Cartesian multipole field
    Component          Value
    ---------          -----
     (2,0,0)        1.00000E-11
     (0,2,0)        2.00000E-11
     (0,0,2)       -3.00000E-11
 Nucleus-field energy     =     0.0000000051 hartrees
 Requested basis set is 6-31+G(d)
 There are 57 shells and 183 basis functions
 A cutoff of  1.0D-11 yielded   1553 shell pairs
 There are     16645 function pairs
 Smallest overlap matrix eigenvalue = 2.70E-05
 Guess MOs from SCF MO coefficient file
 Reading MOs from coefficient file
 Reading MOs from coefficient file
 A restricted Hartree-Fock SCF calculation will be
 performed using Pulay DIIS extrapolation
 SCF converges when DIIS error is below 1.0E-08
Geometry optimization detected.  Setting ReadMinima to 0
Setting SaveMinima to 0
 ---------------------------------------
  Cycle       Energy         DIIS Error
 ---------------------------------------
    1    -492.1568826688      2.80E-03
    2    -492.1646292301      3.95E-04
    3    -492.1655760573      2.18E-04
    4    -492.1657616865      8.67E-05
    5    -492.1658098831      1.80E-05
    6    -492.1658142051      8.73E-06
    7    -492.1658154722      3.98E-06
    8    -492.1658157424      1.70E-06
    9    -492.1658157933      7.80E-07
   10    -492.1658158058      3.24E-07
   11    -492.1658158086      1.33E-07
   12    -492.1658158087      5.45E-08
   13    -492.1658158082      1.95E-08
   14    -492.1658158083      6.86E-09 Convergence criterion met
 ---------------------------------------
 SCF time:  CPU 96.43 s  wall 95.89 s
 SCF   energy in the final basis set = -492.1658158083
 Total energy in the final basis set = -492.1658158083
 
 --------------------------------------------------------------
 
                    Orbital Energies (a.u.)
 --------------------------------------------------------------
 
 Alpha MOs
 -- Occupied --
-20.258 -20.166 -20.164 -20.100 -11.022 -10.988 -10.951 -10.950
-10.913  -1.094  -1.039  -0.931  -0.916  -0.721  -0.663  -0.542
 -0.437  -0.376  -0.325  -0.321  -0.311  -0.300  -0.267  -0.261
 -0.239  -0.236  -0.205  -0.200  -0.173  -0.108  -0.091  -0.061
 -0.056   0.002   0.020
 -- Virtual --
  0.276   0.294   0.320   0.335   0.349   0.355   0.364   0.371
  0.375   0.391   0.400   0.405   0.416   0.421   0.447   0.457
  0.466   0.478   0.506   0.514   0.570   0.593   0.615   0.631
  0.633   0.643   0.661   0.667   0.670   0.675   0.686   0.697
  0.704   0.714   0.721   0.733   0.737   0.748   0.776   0.781
  0.797   0.806   0.814   0.822   0.845   0.867   0.873   0.888
  0.931   1.048   1.069   1.146   1.173   1.190   1.221   1.238
  1.265   1.287   1.314   1.371   1.377   1.408   1.417   1.428
  1.449   1.469   1.490   1.523   1.543   1.596   1.618   1.628
  1.689   1.718   1.734   1.770   1.797   1.863   1.885   1.886
  1.928   1.953   1.972   1.981   1.999   2.014   2.033   2.046
  2.063   2.085   2.102   2.128   2.146   2.190   2.215   2.253
  2.300   2.327   2.368   2.374   2.395   2.423   2.496   2.504
  2.514   2.549   2.551   2.579   2.604   2.631   2.649   2.661
  2.708   2.750   2.784   2.826   2.846   2.890   2.911   2.976
  2.984   3.016   3.052   3.066   3.104   3.141   3.220   3.280
  3.318   3.378   3.440   3.454   3.619   3.698   3.751   3.827
  3.909   3.919   3.998   4.896   4.993   5.053   5.061   5.163
  5.233   5.351   5.457   5.580
 --------------------------------------------------------------
 
          Ground-State Mulliken Net Atomic Charges

     Atom                 Charge (a.u.)
  ----------------------------------------
      1 C                     0.544715
      2 O                    -0.778862
      3 O                    -0.741020
      4 C                     0.265690
      5 C                    -0.707339
      6 O                    -0.823236
      7 C                     0.431320
      8 O                    -0.556417
      9 C                    -0.703975
     10 H                     0.202515
     11 H                     0.210300
     12 H                     0.150982
     13 H                     0.139365
     14 H                     0.189212
     15 H                     0.176751
  ----------------------------------------
  Sum of atomic charges =    -2.000000

 -----------------------------------------------------------------
                    Cartesian Multipole Moments
 -----------------------------------------------------------------
    Charge (ESU x 10^10)
                -9.6064
    Dipole Moment (Debye)
         X      -5.5838      Y       4.9869      Z      -3.9928
       Tot       8.4847
    Quadrupole Moments (Debye-Ang)
        XX     -91.8598     XY      -5.7093     YY     -84.8204
        XZ      -0.5483     YZ       6.7562     ZZ     -68.4675
    Octopole Moments (Debye-Ang^2)
       XXX     -26.0307    XXY      -2.5656    XYY      -9.1207
       YYY      31.8521    XXZ     -26.3081    XYZ       2.9856
       YYZ      -0.7201    XZZ       0.3558    YZZ       9.6554
       ZZZ       9.7602
    Hexadecapole Moments (Debye-Ang^3)
      XXXX    -918.6897   XXXY      15.5872   XXYY    -238.1063
      XYYY      13.5936   YYYY    -588.5727   XXXZ     -10.6222
      XXYZ      16.3741   XYYZ       0.0156   YYYZ      20.4166
      XXZZ    -215.2587   XYZZ       5.1343   YYZZ    -144.7126
      XZZZ      -2.9574   YZZZ       0.9553   ZZZZ    -376.2407
 -----------------------------------------------------------------
 Calculating analytic gradient of the SCF energy
 Gradient of SCF Energy
            1           2           3           4           5           6
    1   0.0080532   0.0008735  -0.0020313  -0.0034498   0.0016775   0.0007761
    2  -0.0055251   0.0037037   0.0010813  -0.0028967  -0.0038990   0.0062394
    3   0.0037087  -0.0026736  -0.0013095   0.0053703  -0.0016390  -0.0044550
            7           8           9          10          11          12
    1   0.0000212  -0.0005626  -0.0047683  -0.0001421  -0.0018679   0.0018797
    2  -0.0041043   0.0014835   0.0005791   0.0009223   0.0009042   0.0004319
    3   0.0060651  -0.0036933  -0.0024107   0.0003951  -0.0004348   0.0014598
           13          14          15
    1   0.0008769  -0.0015306   0.0001946
    2   0.0023770   0.0015837  -0.0028809
    3   0.0004792  -0.0012712   0.0004089
 Max gradient component =       8.053E-03
 RMS gradient           =       2.976E-03
 Gradient time:  CPU 57.71 s  wall 57.75 s
 Geometry Optimization Parameters
   NAtoms,    NIC,     NZ,  NCons,   NDum,   NFix, NCnnct, MaxDiis
       15      95       0       0       0       0       0       0

 Cartesian Hessian Update
 Hessian Updated using BFGS Update


** GEOMETRY OPTIMIZATION IN DELOCALIZED INTERNAL COORDINATES **
   Searching for a Minimum

   Optimization Cycle:   6

                       Coordinates (Angstroms)
     ATOM                X               Y               Z
      1  C         1.3871443934    0.1974972756    0.2123696100
      2  O         1.4032188216    1.3481944457   -0.3044572290
      3  O         2.2703561279   -0.2897626957    0.9127637060
      4  C         0.0770742516   -0.6896482402   -0.1152846288
      5  C        -0.0428375777   -0.7046099395   -1.7004881995
      6  O         0.0585324485   -1.9150701960    0.3374814346
      7  C        -1.1986314436    0.1240505726    0.3540811482
      8  O        -2.0370408151   -0.3411829972    1.0813848362
      9  C        -1.5121812353    1.5407480886   -0.1712687429
     10  H        -1.1219137954    1.7397296608   -1.1579296758
     11  H        -1.0585006225    2.2720455186    0.4896876118
     12  H        -2.5900086863    1.6762042277   -0.1369872903
     13  H        -1.0585227190   -0.9798998928   -1.9920597416
     14  H         0.6210691730   -1.4855523246   -2.0515549616
     15  H         0.2231011135    0.2247986284   -2.1890114103
   Point Group: c1    Number of degrees of freedom:    39


   Energy is   -492.165815808

 Hessian Updated using BFGS Update

 39 Hessian modes will be used to form the next step
  Hessian Eigenvalues:
     0.002117    0.005613    0.007545    0.012708    0.015673    0.048109
     0.070152    0.072804    0.074719    0.080698    0.085885    0.094807
     0.098114    0.158292    0.159888    0.160008    0.160204    0.161220
     0.162319    0.199243    0.204842    0.241159    0.244711    0.250400
     0.257165    0.278052    0.288527    0.299337    0.304279    0.312417
     0.322782    0.357451    0.363081    0.367885    0.406342    0.447842
     0.657385    0.787007    0.833507

 Minimum Search - Taking Simple RFO Step
 Searching for Lamda that Minimizes Along All modes
 Value Taken    Lamda =  -0.00215662
 Calculated Step too Large.  Step scaled by  0.989816
 Step Taken.  Stepsize is  0.300000

                             Maximum     Tolerance    Cnvgd?
         Gradient           0.013559      0.000300      NO
         Displacement       0.135560      0.001200      NO
         Energy change     -0.000691      0.000001      NO


 New Cartesian Coordinates Obtained by Inverse Iteration

 Displacement from previous Coordinates is:  0.389632
 ----------------------------------------------------------------
             Standard Nuclear Orientation (Angstroms)
    I     Atom           X                Y                Z
 ----------------------------------------------------------------
    1      C       1.3528687973     0.1996965381     0.2195046574
    2      O       1.3565858664     1.3663760437    -0.2497958951
    3      O       2.2477736471    -0.2958680513     0.9049124942
    4      C       0.0622182753    -0.6970224293    -0.1265262870
    5      C      -0.0516932965    -0.7010930096    -1.7079111789
    6      O       0.0466795590    -1.9306408299     0.3371010592
    7      C      -1.2028751533     0.1223263201     0.3411909685
    8      O      -2.0107854879    -0.3182117192     1.1198494441
    9      C      -1.4910588693     1.5383372324    -0.1806300689
   10      H      -1.1204847803     1.7149415665    -1.1780516514
   11      H      -0.9859687538     2.2516157827     0.4624534693
   12      H      -2.5671310966     1.7044933901    -0.1255571310
   13      H      -1.0375162350    -1.0637506385    -2.0140884034
   14      H       0.6793116671    -1.4290248518    -2.0486948321
   15      H       0.1429352952     0.2553667881    -2.1850301780
 ----------------------------------------------------------------
 Molecular Point Group                 C1    NOp =  1
 Largest Abelian Subgroup              C1    NOp =  1
 Nuclear Repulsion Energy =   455.2371657883 hartrees
 There are       35 alpha and       35 beta electrons
 Applying Cartesian multipole field
    Component          Value
    ---------          -----
     (2,0,0)        1.00000E-11
     (0,2,0)        2.00000E-11
     (0,0,2)       -3.00000E-11
 Nucleus-field energy     =     0.0000000049 hartrees
 Requested basis set is 6-31+G(d)
 There are 57 shells and 183 basis functions
 A cutoff of  1.0D-11 yielded   1554 shell pairs
 There are     16649 function pairs
 Smallest overlap matrix eigenvalue = 2.61E-05
 Guess MOs from SCF MO coefficient file
 Reading MOs from coefficient file
 Reading MOs from coefficient file
 A restricted Hartree-Fock SCF calculation will be
 performed using Pulay DIIS extrapolation
 SCF converges when DIIS error is below 1.0E-08
Geometry optimization detected.  Setting ReadMinima to 0
Setting SaveMinima to 0
 ---------------------------------------
  Cycle       Energy         DIIS Error
 ---------------------------------------
    1    -492.1568813157      1.71E-03
    2    -492.1662356611      2.70E-04
    3    -492.1668301271      1.03E-04
    4    -492.1669143471      5.26E-05
    5    -492.1669334791      1.57E-05
    6    -492.1669365767      7.67E-06
    7    -492.1669374696      2.57E-06
    8    -492.1669375734      9.44E-07
    9    -492.1669375867      4.86E-07
   10    -492.1669375907      2.24E-07
   11    -492.1669375920      9.02E-08
   12    -492.1669375923      3.60E-08
   13    -492.1669375925      1.40E-08
   14    -492.1669375925      5.78E-09 Convergence criterion met
 ---------------------------------------
 SCF time:  CPU 94.08 s  wall 93.60 s
 SCF   energy in the final basis set = -492.1669375925
 Total energy in the final basis set = -492.1669375925
 
 --------------------------------------------------------------
 
                    Orbital Energies (a.u.)
 --------------------------------------------------------------
 
 Alpha MOs
 -- Occupied --
-20.257 -20.165 -20.164 -20.101 -11.021 -10.989 -10.949 -10.949
-10.916  -1.092  -1.040  -0.931  -0.910  -0.723  -0.665  -0.544
 -0.436  -0.376  -0.324  -0.322  -0.312  -0.301  -0.267  -0.260
 -0.239  -0.235  -0.203  -0.200  -0.170  -0.107  -0.090  -0.060
 -0.055   0.002   0.018
 -- Virtual --
  0.276   0.293   0.320   0.335   0.349   0.355   0.364   0.371
  0.376   0.392   0.400   0.405   0.416   0.421   0.448   0.457
  0.465   0.480   0.505   0.514   0.571   0.593   0.617   0.631
  0.636   0.645   0.660   0.666   0.672   0.675   0.686   0.697
  0.704   0.714   0.721   0.731   0.738   0.751   0.776   0.783
  0.798   0.805   0.814   0.822   0.847   0.867   0.872   0.890
  0.928   1.046   1.074   1.153   1.177   1.187   1.216   1.237
  1.265   1.292   1.312   1.368   1.374   1.408   1.418   1.426
  1.446   1.468   1.488   1.527   1.541   1.592   1.619   1.625
  1.689   1.720   1.731   1.765   1.805   1.860   1.885   1.891
  1.933   1.953   1.971   1.981   2.000   2.017   2.034   2.053
  2.065   2.090   2.108   2.130   2.147   2.190   2.228   2.248
  2.302   2.336   2.370   2.378   2.407   2.419   2.497   2.503
  2.516   2.556   2.559   2.586   2.609   2.633   2.648   2.670
  2.705   2.748   2.784   2.820   2.847   2.890   2.916   2.966
  2.974   3.014   3.049   3.072   3.098   3.137   3.220   3.285
  3.318   3.376   3.437   3.455   3.624   3.700   3.754   3.830
  3.909   3.920   3.992   4.899   4.996   5.054   5.080   5.168
  5.230   5.350   5.475   5.579
 --------------------------------------------------------------
 
          Ground-State Mulliken Net Atomic Charges

     Atom                 Charge (a.u.)
  ----------------------------------------
      1 C                     0.550732
      2 O                    -0.775560
      3 O                    -0.741836
      4 C                     0.240605
      5 C                    -0.698546
      6 O                    -0.826255
      7 C                     0.422058
      8 O                    -0.558400
      9 C                    -0.682646
     10 H                     0.196996
     11 H                     0.221894
     12 H                     0.147545
     13 H                     0.143934
     14 H                     0.189999
     15 H                     0.169479
  ----------------------------------------
  Sum of atomic charges =    -2.000000

 -----------------------------------------------------------------
                    Cartesian Multipole Moments
 -----------------------------------------------------------------
    Charge (ESU x 10^10)
                -9.6064
    Dipole Moment (Debye)
         X      -5.4369      Y       5.0607      Z      -4.2714
       Tot       8.5683
    Quadrupole Moments (Debye-Ang)
        XX     -91.0479     XY      -5.3252     YY     -85.2280
        XZ      -0.5034     YZ       6.4479     ZZ     -68.5778
    Octopole Moments (Debye-Ang^2)
       XXX     -23.4811    XXY      -2.2985    XYY      -8.3569
       YYY      32.7891    XXZ     -27.0488    XYZ       2.5023
       YYZ      -1.2688    XZZ       1.5802    YZZ       9.7760
       ZZZ       8.4627
    Hexadecapole Moments (Debye-Ang^3)
      XXXX    -892.2840   XXXY      18.5511   XXYY    -234.8552
      XYYY      14.0741   YYYY    -595.6304   XXXZ     -11.1195
      XXYZ      14.7805   XYYZ      -0.7203   YYYZ      18.5457
      XXZZ    -212.3686   XYZZ       5.7520   YYZZ    -145.8069
      XZZZ      -2.3781   YZZZ      -0.5599   ZZZZ    -379.4701
 -----------------------------------------------------------------
 Calculating analytic gradient of the SCF energy
 Gradient of SCF Energy
            1           2           3           4           5           6
    1  -0.0002740   0.0021806   0.0006597   0.0017305  -0.0019010   0.0007202
    2  -0.0005913   0.0006936   0.0007449   0.0022776   0.0006618  -0.0035449
    3  -0.0024379   0.0013482   0.0011394   0.0013973  -0.0010399   0.0025445
            7           8           9          10          11          12
    1  -0.0022439   0.0003438  -0.0004138   0.0004007   0.0000819  -0.0002315
    2  -0.0013566  -0.0003043   0.0002825  -0.0002250   0.0010223  -0.0000920
    3  -0.0044022   0.0010062  -0.0005691   0.0006594   0.0001646   0.0005792
           13          14          15
    1  -0.0003839  -0.0004573  -0.0002120
    2   0.0007234  -0.0006301   0.0003381
    3  -0.0011061   0.0007287  -0.0000120
 Max gradient component =       4.402E-03
 RMS gradient           =       1.365E-03
 Gradient time:  CPU 58.03 s  wall 58.07 s
 Geometry Optimization Parameters
   NAtoms,    NIC,     NZ,  NCons,   NDum,   NFix, NCnnct, MaxDiis
       15      95       0       0       0       0       0       0

 Cartesian Hessian Update
 Hessian Updated using BFGS Update


** GEOMETRY OPTIMIZATION IN DELOCALIZED INTERNAL COORDINATES **
   Searching for a Minimum

   Optimization Cycle:   7

                       Coordinates (Angstroms)
     ATOM                X               Y               Z
      1  C         1.3528687973    0.1996965381    0.2195046574
      2  O         1.3565858664    1.3663760437   -0.2497958951
      3  O         2.2477736471   -0.2958680513    0.9049124942
      4  C         0.0622182753   -0.6970224293   -0.1265262870
      5  C        -0.0516932965   -0.7010930096   -1.7079111789
      6  O         0.0466795590   -1.9306408299    0.3371010592
      7  C        -1.2028751533    0.1223263201    0.3411909685
      8  O        -2.0107854879   -0.3182117192    1.1198494441
      9  C        -1.4910588693    1.5383372324   -0.1806300689
     10  H        -1.1204847803    1.7149415665   -1.1780516514
     11  H        -0.9859687538    2.2516157827    0.4624534693
     12  H        -2.5671310966    1.7044933901   -0.1255571310
     13  H        -1.0375162350   -1.0637506385   -2.0140884034
     14  H         0.6793116671   -1.4290248518   -2.0486948321
     15  H         0.1429352952    0.2553667881   -2.1850301780
   Point Group: c1    Number of degrees of freedom:    39


   Energy is   -492.166937592

 Hessian Updated using BFGS Update

 39 Hessian modes will be used to form the next step
  Hessian Eigenvalues:
     0.002075    0.005115    0.007685    0.014036    0.015673    0.047954
[...]
 132. (0.00003) RY*(13) C  7             s( 49.89%)p 0.80( 39.68%)d 0.21( 10.43%)
 133. (0.00001) RY*(14) C  7             s( 19.27%)p 1.16( 22.42%)d 3.03( 58.31%)
 134. (0.00981) RY*( 1) O  8             s(  6.91%)p13.43( 92.78%)d 0.05(  0.31%)
                                         0.0000 -0.0028  0.2624 -0.0147  0.0042
                                         0.0165 -0.5038  0.0214 -0.0086  0.8180
                                         0.0021 -0.0024 -0.0638 -0.0008 -0.0138
                                         0.0228  0.0377  0.0145  0.0283
 135. (0.00109) RY*( 2) O  8             s( 56.63%)p 0.62( 35.31%)d 0.14(  8.07%)
                                         0.0000  0.0062  0.7413 -0.1079 -0.0713
                                         0.0174 -0.2817 -0.1807 -0.0018 -0.3983
                                        -0.0572 -0.0080  0.2782  0.0369 -0.0849
                                         0.1954  0.0964 -0.1394  0.0807
 136. (0.00057) RY*( 3) O  8             s( 10.59%)p 8.29( 87.77%)d 0.15(  1.64%)
                                         0.0000  0.0013  0.3056  0.0643 -0.0917
                                         0.0057  0.0550  0.0167 -0.0008 -0.1318
                                        -0.0651 -0.0098 -0.9219 -0.0524  0.0279
                                        -0.0019  0.0380 -0.0207 -0.1171
 137. (0.00029) RY*( 4) O  8             s( 26.11%)p 2.71( 70.85%)d 0.12(  3.03%)
                                         0.0000  0.0036  0.4974  0.0624  0.0991
                                         0.0095  0.7095  0.2624  0.0022  0.2807
                                         0.1807  0.0034  0.1449 -0.0607  0.1020
                                        -0.0416 -0.0213  0.0912  0.0971
 138. (0.00013) RY*( 5) O  8             s( 18.27%)p 3.30( 60.39%)d 1.17( 21.34%)
                                         0.0000 -0.0098  0.0511 -0.0822  0.4162
                                        -0.0302 -0.3298  0.2800 -0.0032 -0.2347
                                         0.5753  0.0123 -0.0400 -0.1670  0.1765
                                        -0.2078  0.0649  0.3667 -0.0194
 139. (0.00007) RY*( 6) O  8             s(  3.65%)p16.69( 60.91%)d 9.71( 35.44%)
 140. (0.00005) RY*( 7) O  8             s(  8.06%)p 9.26( 74.60%)d 2.15( 17.34%)
 141. (0.00001) RY*( 8) O  8             s( 96.76%)p 0.03(  2.72%)d 0.01(  0.53%)
 142. (0.00002) RY*( 9) O  8             s( 63.42%)p 0.57( 36.43%)d 0.00(  0.15%)
 143. (0.00001) RY*(10) O  8             s(  0.15%)p99.99( 35.92%)d99.99( 63.93%)
 144. (0.00001) RY*(11) O  8             s(  1.52%)p10.33( 15.69%)d54.50( 82.79%)
 145. (0.00001) RY*(12) O  8             s(  0.81%)p 7.81(  6.31%)d99.99( 92.88%)
 146. (0.00001) RY*(13) O  8             s(  5.50%)p 2.03( 11.20%)d15.14( 83.30%)
 147. (0.00001) RY*(14) O  8             s(  1.64%)p 6.17( 10.15%)d53.67( 88.21%)
 148. (0.00574) RY*( 1) C  9             s( 30.22%)p 2.30( 69.42%)d 0.01(  0.36%)
                                         0.0000  0.0047  0.5494  0.0178 -0.0042
                                        -0.0093 -0.7484  0.0388  0.0179 -0.0995
                                        -0.1723  0.0010  0.2834  0.1111  0.0512
                                         0.0012 -0.0177 -0.0240  0.0071
 149. (0.00161) RY*( 2) C  9             s( 18.10%)p 4.39( 79.42%)d 0.14(  2.48%)
                                         0.0000  0.0019  0.3101  0.2912  0.0062
                                        -0.0102  0.5150 -0.0802 -0.0059 -0.3411
                                        -0.0058 -0.0063  0.6348 -0.0550  0.0435
                                        -0.1169 -0.0808 -0.0215  0.0471
 150. (0.00093) RY*( 3) C  9             s( 28.47%)p 2.36( 67.24%)d 0.15(  4.29%)
                                         0.0000 -0.0008  0.3835 -0.3709 -0.0071
                                         0.0021  0.3076  0.1967  0.0032  0.6721
                                        -0.2197 -0.0052  0.1494  0.1294 -0.1975
                                         0.0492  0.0062 -0.0312  0.0213
 151. (0.00052) RY*( 4) C  9             s( 28.23%)p 2.06( 58.27%)d 0.48( 13.50%)
                                         0.0000  0.0076  0.4948  0.1934 -0.0008
                                        -0.0008  0.2485  0.1556 -0.0091 -0.2436
                                        -0.1645 -0.0090 -0.6094  0.1969  0.1495
                                        -0.0831  0.3022 -0.0626 -0.1025
 152. (0.00016) RY*( 5) C  9             s( 26.61%)p 0.59( 15.68%)d 2.17( 57.71%)
                                         0.0000 -0.0020  0.1062  0.5033  0.0400
                                         0.0022 -0.0040  0.0739 -0.0144  0.3104
                                        -0.0688  0.0303 -0.1535 -0.1598  0.2180
                                         0.1708 -0.3755  0.5222  0.2943
 153. (0.00014) RY*( 6) C  9             s(  5.85%)p 4.54( 26.56%)d11.54( 67.59%)
                                         0.0000 -0.0005  0.2043  0.0289  0.1264
                                         0.0361 -0.0101  0.0874 -0.0001 -0.1686
                                         0.2244 -0.0060 -0.0793 -0.4140 -0.5983
                                         0.4763  0.2094  0.0107  0.2170
 154. (0.00010) RY*( 7) C  9             s( 11.51%)p 5.59( 64.29%)d 2.10( 24.19%)
                                         0.0000 -0.0115  0.2124  0.0730  0.2541
                                        -0.0073 -0.0420 -0.5115 -0.0165  0.3450
                                         0.4968 -0.0082  0.0077 -0.1152  0.2003
                                        -0.2090  0.3964  0.0297  0.0115
 155. (0.00010) RY*( 8) C  9             s(  0.79%)p87.85( 69.81%)d36.99( 29.40%)
                                         0.0000  0.0021  0.0263 -0.0450  0.0723
                                         0.0164  0.0724 -0.5136  0.0040 -0.1056
                                         0.0107  0.0158 -0.0292  0.6453 -0.1688
                                         0.4458 -0.1340  0.2148 -0.0508
 156. (0.00005) RY*( 9) C  9             s(  1.73%)p51.71( 89.56%)d 5.03(  8.71%)
 157. (0.00001) RY*(10) C  9             s( 24.03%)p 0.37(  8.93%)d 2.79( 67.04%)
 158. (0.00001) RY*(11) C  9             s( 90.66%)p 0.09(  8.25%)d 0.01(  1.09%)
 159. (0.00001) RY*(12) C  9             s( 21.46%)p 1.08( 23.08%)d 2.58( 55.46%)
 160. (0.00001) RY*(13) C  9             s( 11.34%)p 0.55(  6.20%)d 7.27( 82.46%)
 161. (0.00001) RY*(14) C  9             s(  0.99%)p14.04( 13.91%)d85.86( 85.10%)
 162. (0.00158) RY*( 1) H 10             s(100.00%)
                                        -0.0018  1.0000
 163. (0.00065) RY*( 1) H 11             s(100.00%)
                                        -0.0010  1.0000
 164. (0.00119) RY*( 1) H 12             s(100.00%)
                                        -0.0010  1.0000
 165. (0.00161) RY*( 1) H 13             s(100.00%)
                                        -0.0019  1.0000
 166. (0.00122) RY*( 1) H 14             s(100.00%)
                                        -0.0020  1.0000
 167. (0.00138) RY*( 1) H 15             s(100.00%)
                                        -0.0021  1.0000
 168. (0.05620) BD*( 1) C  1- O  2       
               ( 67.06%)   0.8189* C  1 s( 33.01%)p 2.02( 66.66%)d 0.01(  0.33%)
                                         0.0001 -0.5722  0.0506  0.0086 -0.0020
                                         0.1273 -0.0161  0.0038 -0.5051 -0.0367
                                         0.0067 -0.6258 -0.0456  0.0036  0.0224
                                         0.0121 -0.0442  0.0200 -0.0169
               ( 32.94%)  -0.5739* O  2 s( 39.69%)p 1.51( 59.97%)d 0.01(  0.34%)
                                         0.0000 -0.6299  0.0098  0.0042 -0.0047
                                        -0.0870  0.0112 -0.0018  0.2904 -0.0084
                                        -0.0023  0.7123 -0.0147 -0.0002  0.0094
                                         0.0126 -0.0418  0.0112 -0.0364
 169. (0.06008) BD*( 1) C  1- O  3       
               ( 67.27%)   0.8202* C  1 s( 30.54%)p 2.26( 69.14%)d 0.01(  0.32%)
                                        -0.0001  0.5503 -0.0503 -0.0062  0.0034
                                         0.6195  0.0594 -0.0119  0.1750  0.0048
                                        -0.0011 -0.5227 -0.0079 -0.0034  0.0076
                                        -0.0461 -0.0157  0.0274  0.0037
               ( 32.73%)  -0.5721* O  3 s( 39.55%)p 1.52( 60.10%)d 0.01(  0.35%)
                                         0.0000  0.6288 -0.0115 -0.0038  0.0048
                                        -0.7104  0.0135  0.0005  0.1636 -0.0035
                                         0.0022  0.2628 -0.0144  0.0010 -0.0092
                                        -0.0407  0.0025  0.0400 -0.0111
 170. (0.29798) BD*( 2) C  1- O  3       
               ( 80.67%)   0.8982* C  1 s(  3.00%)p32.15( 96.35%)d 0.22(  0.65%)
                                         0.0000 -0.1694  0.0352  0.0043  0.0030
                                        -0.4677  0.0054 -0.0130  0.6999 -0.0500
                                         0.0204 -0.5001  0.0379 -0.0120  0.0517
                                        -0.0112 -0.0349 -0.0275  0.0421
               ( 19.33%)  -0.4397* O  3 s(  1.79%)p54.72( 97.95%)d 0.15(  0.26%)
                                         0.0000 -0.1336  0.0060 -0.0002 -0.0013
                                        -0.1813 -0.0052  0.0017  0.7412  0.0045
                                        -0.0005 -0.6302  0.0024 -0.0009 -0.0328
                                         0.0260  0.0178  0.0065 -0.0221
 171. (0.10780) BD*( 1) C  1- C  4       
               ( 52.95%)   0.7277* C  1 s( 34.06%)p 1.93( 65.77%)d 0.01(  0.17%)
                                        -0.0003 -0.5794 -0.0692 -0.0064  0.0027
                                         0.6066 -0.0121 -0.0135  0.4640  0.0107
                                        -0.0065  0.2717 -0.0087 -0.0044 -0.0288
                                        -0.0227 -0.0098 -0.0088  0.0151
               ( 47.05%)  -0.6859* C  4 s( 24.84%)p 3.02( 74.98%)d 0.01(  0.18%)
                                         0.0002 -0.4975  0.0295 -0.0021  0.0005
                                        -0.6565  0.0055 -0.0036 -0.4971  0.0291
                                         0.0140 -0.2659 -0.0044  0.0013 -0.0343
                                        -0.0111 -0.0133  0.0000  0.0174
 172. (0.05570) BD*( 1) C  4- C  5       
               ( 53.12%)   0.7289* C  4 s( 24.31%)p 3.11( 75.51%)d 0.01(  0.17%)
                                        -0.0003  0.4930 -0.0011 -0.0074 -0.0011
                                         0.0339  0.0072  0.0036 -0.0758 -0.0226
                                        -0.0044 -0.8646  0.0038  0.0093  0.0006
                                         0.0036 -0.0037  0.0033  0.0408
               ( 46.88%)  -0.6847* C  5 s( 27.85%)p 2.59( 72.04%)d 0.00(  0.11%)
                                         0.0005  0.5275 -0.0137  0.0056 -0.0017
                                        -0.0376  0.0065  0.0037  0.1294 -0.0203
                                        -0.0029  0.8377 -0.0084 -0.0037 -0.0012
                                        -0.0038  0.0096  0.0013  0.0318
 173. (0.01035) BD*( 1) C  4- O  6       
               ( 61.66%)   0.7853* C  4 s( 28.30%)p 2.53( 71.49%)d 0.01(  0.21%)
                                         0.0003 -0.5281 -0.0641  0.0015 -0.0009
                                        -0.0249 -0.0077  0.0005  0.7579  0.0476
                                         0.0054 -0.3696 -0.0288 -0.0027  0.0006
                                        -0.0006  0.0301  0.0330  0.0099
               ( 38.34%)  -0.6192* O  6 s( 34.28%)p 1.91( 65.44%)d 0.01(  0.28%)
                                        -0.0001 -0.5852  0.0180 -0.0048  0.0007
                                         0.0227  0.0001 -0.0007 -0.7383  0.0218
                                         0.0108  0.3287 -0.0110 -0.0059  0.0031
                                        -0.0015  0.0345  0.0375  0.0123
 174. (0.09857) BD*( 1) C  4- C  7       
               ( 53.04%)   0.7283* C  4 s( 22.60%)p 3.41( 77.19%)d 0.01(  0.21%)
                                        -0.0001  0.4752 -0.0128  0.0036  0.0020
                                        -0.7512 -0.0006 -0.0027  0.4062 -0.0155
                                        -0.0107  0.2054  0.0085  0.0012 -0.0355
                                        -0.0072  0.0091  0.0159 -0.0204
               ( 46.96%)  -0.6853* C  7 s( 37.71%)p 1.65( 62.17%)d 0.00(  0.12%)
                                         0.0001  0.6131 -0.0348  0.0074 -0.0019
                                         0.6581 -0.0184 -0.0144 -0.4223 -0.0009
                                         0.0059 -0.0974  0.0117  0.0031 -0.0234
                                        -0.0098  0.0081  0.0174 -0.0136
 175. (0.00823) BD*( 1) C  5- H 13       
               ( 40.82%)   0.6389* C  5 s( 23.67%)p 3.22( 76.15%)d 0.01(  0.18%)
                                         0.0000  0.4865  0.0087  0.0004  0.0007
                                        -0.6715  0.0017 -0.0001 -0.4928 -0.0086
                                         0.0005 -0.2600 -0.0050 -0.0045  0.0313
                                         0.0171  0.0121  0.0115 -0.0150
               ( 59.18%)  -0.7693* H 13 s(100.00%)
                                         1.0000  0.0019
 176. (0.00734) BD*( 1) C  5- H 14       
               ( 38.40%)   0.6197* C  5 s( 24.70%)p 3.04( 75.14%)d 0.01(  0.16%)
                                         0.0001 -0.4970 -0.0050  0.0041 -0.0002
                                        -0.7374 -0.0001 -0.0007  0.4005 -0.0031
                                         0.0015  0.2174 -0.0002  0.0050  0.0271
                                         0.0153 -0.0080 -0.0175  0.0150
               ( 61.60%)  -0.7849* H 14 s(100.00%)
                                        -1.0000 -0.0020
 177. (0.01105) BD*( 1) C  5- H 15       
               ( 41.65%)   0.6454* C  5 s( 23.78%)p 3.20( 76.04%)d 0.01(  0.18%)
                                         0.0001 -0.4875 -0.0079  0.0017 -0.0006
                                         0.0406 -0.0081  0.0003 -0.7599 -0.0058
                                         0.0041  0.4255  0.0121  0.0042  0.0040
                                        -0.0019  0.0319  0.0273  0.0052
               ( 58.35%)  -0.7639* H 15 s(100.00%)
                                        -1.0000 -0.0021
 178. (0.01100) BD*( 1) C  7- O  8       
               ( 67.45%)   0.8213* C  7 s( 31.05%)p 2.21( 68.67%)d 0.01(  0.28%)
                                         0.0000 -0.5519 -0.0771  0.0011 -0.0016
                                         0.6737  0.0524 -0.0037  0.3311  0.0363
                                         0.0032 -0.3437 -0.0311 -0.0004 -0.0304
                                         0.0290  0.0102 -0.0282  0.0102
               ( 32.55%)  -0.5705* O  8 s( 46.70%)p 1.13( 52.89%)d 0.01(  0.41%)
                                         0.0000 -0.6833  0.0106  0.0049 -0.0004
                                        -0.6085  0.0112 -0.0015 -0.2814  0.0086
                                         0.0009  0.2815 -0.0060 -0.0002 -0.0372
                                         0.0362  0.0168 -0.0292  0.0154
 179. (0.05266) BD*( 2) C  7- O  8       
               ( 73.82%)   0.8592* C  7 s(  0.03%)p99.99( 99.43%)d18.71(  0.54%)
                                         0.0000  0.0080  0.0146 -0.0034 -0.0005
                                         0.3180 -0.0175  0.0102  0.2996 -0.0204
                                         0.0099  0.8946 -0.0411  0.0223 -0.0264
                                        -0.0501 -0.0136 -0.0133  0.0431
               ( 26.18%)  -0.5117* O  8 s(  0.01%)p 1.00( 99.63%)d 0.00(  0.37%)
                                         0.0000 -0.0075 -0.0015  0.0005 -0.0024
                                         0.2945 -0.0015 -0.0030  0.2902 -0.0009
                                        -0.0014  0.9085 -0.0019 -0.0012  0.0212
                                         0.0361  0.0172  0.0061 -0.0398
 180. (0.05277) BD*( 1) C  7- C  9       
               ( 54.07%)   0.7353* C  7 s( 31.48%)p 2.17( 68.34%)d 0.01(  0.19%)
                                        -0.0001  0.5609  0.0025 -0.0098  0.0007
                                        -0.0542 -0.0088  0.0004  0.7862  0.0041
                                        -0.0057 -0.2492  0.0049  0.0018 -0.0042
                                         0.0023 -0.0229 -0.0341 -0.0131
               ( 45.93%)  -0.6777* C  9 s( 26.97%)p 2.70( 72.89%)d 0.01(  0.14%)
                                         0.0002  0.5192  0.0054 -0.0087  0.0004
                                         0.0830 -0.0118  0.0012 -0.8137  0.0019
                                         0.0063  0.2441  0.0052  0.0002 -0.0040
                                         0.0024 -0.0171 -0.0311 -0.0127
 181. (0.00739) BD*( 1) C  9- H 10       
               ( 40.74%)   0.6383* C  9 s( 23.23%)p 3.30( 76.60%)d 0.01(  0.17%)
                                        -0.0001  0.4819 -0.0078  0.0027  0.0002
                                        -0.6563  0.0006 -0.0005  0.0674  0.0055
                                         0.0083 -0.5749 -0.0054 -0.0027 -0.0024
                                         0.0359 -0.0015  0.0196  0.0051
               ( 59.26%)  -0.7698* H 10 s(100.00%)
                                         1.0000  0.0018
 182. (0.00614) BD*( 1) C  9- H 11       
               ( 38.76%)   0.6226* C  9 s( 25.71%)p 2.88( 74.13%)d 0.01(  0.16%)
                                         0.0001 -0.5070  0.0006 -0.0044  0.0009
                                        -0.7236 -0.0003  0.0039 -0.2862 -0.0073
                                        -0.0049  0.3684 -0.0046  0.0010 -0.0190
                                         0.0258  0.0100 -0.0205  0.0091
               ( 61.24%)  -0.7825* H 11 s(100.00%)
                                        -1.0000 -0.0010
 183. (0.00448) BD*( 1) C  9- H 12       
               ( 38.85%)   0.6233* C  9 s( 24.08%)p 3.15( 75.76%)d 0.01(  0.16%)
                                         0.0001 -0.4907  0.0032 -0.0032 -0.0004
                                         0.1908 -0.0120  0.0031 -0.4990 -0.0032
                                        -0.0073 -0.6870  0.0012  0.0029  0.0095
                                         0.0128 -0.0293  0.0091 -0.0190
               ( 61.15%)  -0.7820* H 12 s(100.00%)
                                        -1.0000 -0.0010
 SVNBO: NDIM =          183
 NBO state            0

 *******************************************************************************
Archival summary:
1\1\bt2600-16\OPT\HF\6-31+G*\456(2-,1)\emavera\SunApr2319:24:562017SunApr2319:24:562017\0\\#,OPT,HF,6-31+G*,\\-2,1\C\O,1,1.32894\C,1,1.56031,2,114.017\O,3,1.20416,1,125.389,2,11.5102,0\C,3,1.53709,1,118.295,2,-173.35,0\H,5,1.08076,3,113.826,1,2.73264,0\H,5,1.08466,3,107.909,1,123.013,0\H,5,1.09076,3,108.414,1,-119.623,0\C,1,1.56983,2,110.27,3,116.065,0\H,9,1.08253,1,106.594,2,60.3146,0\H,9,1.09114,1,108.401,2,-56.9814,0\H,9,1.09334,1,115.513,2,-179.727,0\C,1,1.57974,2,113.071,3,-121.087,0\O,13,1.24436,1,118.111,2,-90.1802,0\O,13,1.24856,1,115.9,2,89.8334,0\\HF=-492.177054\\@

 Total job time:  5507.89s(wall), 5516.98s(cpu) 
 Sun Apr 23 19:24:56 2017

        *************************************************************
        *                                                           *
        *  Thank you very much for using Q-Chem.  Have a nice day.  *
        *                                                           *
        *************************************************************


0 sent ACK to 0 
now end server 0 ... 
cleanup process ... done
