
Running Job 1 of 3 ts_solv_wo02.qcin
qchem ts_solv_wo02.qcin_20935.0 /tmp/ts_solv_wo02.qcin/ 1
/programs/x86_64/lib/qchem-4.3.2/bin/mpi/mpirun_qchem -machinefile /var/spool/torque/aux//119431.vali -np 1 /programs/x86_64/lib/qchem-4.3.2/exe/qcprog.exe ts_solv_wo02.qcin_20935.0 /tmp/ts_solv_wo02.qcin/

Process 0 of 1 is on bt2600-16.csail.mit.edu - thread support 0
initial socket setup ...start
initial socket setup ...done 
now start server 0 ... 

cmd = ssh thor /programs/x86_64/lib/qchem-4.3.2/bin/get_hostid 972270822 > /tmp/ts_solv_wo02.qcin/lic.dat
                  Welcome to Q-Chem
     A Quantum Leap Into The Future Of Chemistry


 Q-Chem 4.3, Q-Chem, Inc., Pleasanton, CA (2015)

 Y. Shao,  Z. Gan,  E. Epifanovsky,  A. T. B. Gilbert,  M. Wormit,  
 J. Kussmann,  A. W. Lange,  A. Behn,  J. Deng,  X. Feng,  D. Ghosh,  
 M. Goldey,  P. R. Horn,  L. D. Jacobson,  I. Kaliman,  R. Z. Khaliullin,  
 T. Kus,  A. Landau,  J. Liu,  E. I. Proynov,  Y. M. Rhee,  R. M. Richard,  
 M. A. Rohrdanz,  R. P. Steele,  E. J. Sundstrom,  H. L. Woodcock III,  
 P. M. Zimmerman,  D. Zuev,  B. Albrecht,  E. Alguire,  B. Austin,  
 S. A. Baeppler,  G. J. O. Beran,  Y. A. Bernard,  E. Berquist,  
 K. Brandhorst,  K. B. Bravaya,  S. T. Brown,  D. Casanova,  C.-M. Chang,  
 Y. Chen,  S. H. Chien,  K. D. Closser,  D. L. Crittenden,  M. Diedenhofen,  
 R. A. DiStasio Jr.,  H. Do,  A. D. Dutoi,  R. G. Edgar,  P.-T. Fang,  
 S. Fatehi,  Q. Feng,  L. Fusti-Molnar,  A. Ghysels,  
 A. Golubeva-Zadorozhnaya,  J. Gomes,  A. Gunina,  M. W. D. Hanson-Heine,  
 P. H. P. Harbach,  A. W. Hauser,  E. G. Hohenstein,  Z. C. Holden,  K. Hui,  
 T.-C. Jagau,  H. Ji,  B. Kaduk,  K. Khistyaev,  Jaehoon Kim,  Jihan Kim,  
 R. A. King,  P. Klunzinger,  D. Kosenkov,  T. Kowalczyk,  C. M. Krauter,  
 K. U. Lao,  A. Laurent,  K. V. Lawler,  S. Lehtola,  S. V. Levchenko,  
 C. Y. Lin,  Y.-S. Lin,  F. Liu,  E. Livshits,  R. C. Lochan,  A. Luenser,  
 P. Manohar,  S. F. Manzer,  S.-P. Mao,  N. Mardirossian,  A. V. Marenich,  
 L. A. Martinez-Martinez,  S. A. Maurer,  N. J. Mayhall,  K. Nanda,  
 C. M. Oana,  R. Olivares-Amaya,  D. P. O'Neill,  J. A. Parkhill,  
 T. M. Perrine,  R. Peverati,  P. A. Pieniazek,  F. Plasser,  A. Prociuk,  
 D. R. Rehn,  E. Rosta,  N. J. Russ,  N. Sergueev,  S. M. Sharada,  
 S. Sharma,  D. W. Small,  A. Sodt,  T. Stauch,  T. Stein,  D. Stuck,  
 Y.-C. Su,  A. J. W. Thom,  T. Tsuchimochi,  L. Vogt,  O. Vydrov,  T. Wang,  
 M. A. Watson,  J. Wenzel,  A. White,  C. F. Williams,  V. Vanovschi,  
 S. Yeganeh,  S. R. Yost,  Z.-Q. You,  I. Y. Zhang,  X. Zhang,  Y. Zhao,  
 B. R. Brooks,  G. K. L. Chan,  D. M. Chipman,  C. J. Cramer,  
 W. A. Goddard III,  M. S. Gordon,  W. J. Hehre,  A. Klamt,  
 H. F. Schaefer III,  M. W. Schmidt,  C. D. Sherrill,  D. G. Truhlar,  
 A. Warshel,  X. Xu,  A. Aspuru-Guzik,  R. Baer,  A. T. Bell,  N. A. Besley,  
 J.-D. Chai,  A. Dreuw,  B. D. Dunietz,  T. R. Furlani,  S. R. Gwaltney,  
 C.-P. Hsu,  Y. Jung,  J. Kong,  D. S. Lambrecht,  W. Liang,  C. Ochsenfeld,  
 V. A. Rassolov,  L. V. Slipchenko,  J. E. Subotnik,  T. Van Voorhis,  
 J. M. Herbert,  A. I. Krylov,  P. M. W. Gill,  M. Head-Gordon

 Contributors to earlier versions of Q-Chem not listed above: 
 R. D. Adamson,  J. Baker,  E. F. C. Byrd,  A. K. Chakraborty,  C.-L. Cheng,  
 H. Dachsel,  R. J. Doerksen,  G. Hawkins,  A. Heyden,  S. Hirata,  
 G. Kedziora,  F. J. Keil,  C. Kelley,  P. P. Korambath,  W. Kurlancheek,  
 A. M. Lee,  M. S. Lee,  D. Liotard,  I. Lotan,  P. E. Maslen,  N. Nair,  
 D. Neuhauser,  R. Olson,  B. Peters,  J. Ritchie,  N. E. Schultz,  
 N. Shenvi,  A. C. Simmonett,  K. S. Thanthiriwatte,  Q. Wu,  W. Zhang

 Please cite Q-Chem as follows:
 Y. Shao et al., Mol. Phys. 113, 184-215 (2015)
 DOI: 10.1080/00268976.2014.952696

 Q-Chem 4.3.0 for Intel X86 Linux

 Parts of Q-Chem use Armadillo 5.200.1 (Boston Tea Smuggler).
 http://arma.sourceforge.net/

 Q-Chem begins on Mon Jun  5 12:09:06 2017  

Host: 
0

     Scratch files written to /tmp/ts_solv_wo02.qcin//
 Oct1215 13750_ 19228  19214 4150   
 Parallel job on  1  processors
Processing $rem in /programs/x86_64/lib/qchem-4.3.2/config/preferences.
 MEM_TOTAL  2000 

Checking the input file for inconsistencies... 	...done.

--------------------------------------------------------------
User input:
--------------------------------------------------------------
$comment
Title
$end

$molecule
-2 1
C         2.634         0.037         -0.699
O         2.215         0.710          0.332
O         3.711        -0.588         -0.776
C         1.658         0.109         -1.804
O        -0.179         1.384         -0.053
C         0.622         0.526         -2.360
O        -2.044        -2.302         -0.484
C        -2.848        -1.997         -1.237
H        -2.728         0.123          1.813
H        -2.767         1.924          1.965
H        -2.549         0.901          3.455
C        -3.021         0.970          2.457
H        -0.103         0.996         -1.205
H         0.854         1.123          0.220
H        -0.813         0.874          0.500
$end

$molecule
READ
$end

$solvent
CavityRadius    30
Dielectric     78.39
$end

$rem
jobtype          FREQ
exchange         b3lyp
basis            6-31+G(d)
pdb_print 2
SOLVENT_METHOD ONSAGER
NBO TRUE
$end


--------------------------------------------------------------
 ----------------------------------------------------------------
             Standard Nuclear Orientation (Angstroms)
    I     Atom           X                Y                Z
 ----------------------------------------------------------------
    1      C       2.4014181025     0.0974893665     0.3586167741
    2      O       1.7845200712     1.2365251731     0.4747427844
    3      O       3.3855718854    -0.2730904183     1.0298804739
    4      C       1.7852453051    -0.7269887818    -0.6993774918
    5      O      -0.3229798416     1.1655587404    -0.8989911356
    6      C       0.9948940663    -0.9347220532    -1.6419870648
    7      O      -2.3692648217    -2.0020928561     0.8414924590
    8      C      -2.8949567491    -2.3971045917    -0.0934212944
    9      H      -3.4085510747     1.2302586551     0.5308837144
   10      H      -3.2995374552     2.6224073064    -0.6172731406
   11      H      -3.6138925962     2.9362056942     1.1481912225
   12      C      -3.7790678417     2.2441499119     0.3012408506
   13      H       0.0300528389     0.1064621505    -1.3859267982
   14      H       0.5597298005     1.2908650910    -0.2548940884
   15      H      -1.1357771587     1.1016528797    -0.3484082061
 ----------------------------------------------------------------
 Molecular Point Group                 C1    NOp =  1
 Largest Abelian Subgroup              C1    NOp =  1
 Nuclear Repulsion Energy =   360.6313920023 hartrees
 There are       35 alpha and       35 beta electrons
 Requested basis set is 6-31+G(d)
 There are 57 shells and 183 basis functions

 Total QAlloc Memory Limit   2000 MB
 Mega-Array Size        61 MB
 MEM_STATIC part        62 MB

                       Distance Matrix (Angstroms)
             C (  1)   O (  2)   O (  3)   C (  4)   O (  5)   C (  6)
   O (  2)  1.300558
   O (  3)  1.247591  2.269468
   C (  4)  1.476071  2.287782  2.399459
   O (  5)  3.185074  2.516692  4.420816  2.840105
   C (  6)  2.654465  3.133428  3.645816  1.247526  2.588439
   O (  7)  5.234580  5.279875  6.011912  4.610870  4.153382  4.315613
   C (  8)  5.871876  5.951771  6.724454  5.006072  4.467279  4.434812
   H (  9)  5.921873  5.193378  6.976329  5.685058  3.401394  5.366455
   H ( 10)  6.310980  5.381525  7.469117  6.089352  3.325909  5.669687
   H ( 11)  6.698186  5.699588  7.701044  6.781091  4.261015  6.634010
   C ( 12)  6.542924  5.656759  7.628858  6.386743  3.814244  6.055747
   H ( 13)  2.943958  2.795942  4.152071  2.060750  1.217959  1.442411
   H ( 14)  2.278674  1.426686  3.475915  2.402330  1.099881  2.658314
   H ( 15)  3.744326  3.037088  4.922621  3.464027  0.983801  3.218684
             O (  7)   C (  8)   H (  9)   H ( 10)   H ( 11)   C ( 12)
   C (  8)  1.143000
   H (  9)  3.409500  3.716356
   H ( 10)  4.937551  5.062964  1.807824
   H ( 11)  5.101956  5.522922  1.825784  1.820482
   C ( 12)  4.506661  4.741166  1.103628  1.103039  1.106141
   H ( 13)  3.894114  4.061293  4.094030  4.243463  5.263795  4.682483
   H ( 14)  4.541436  5.055893  4.045785  4.098569  4.700523  4.476964
   H ( 15)  3.545503  3.924415  2.440327  2.658353  3.427309  2.952004
             H ( 13)   H ( 14)
   H ( 14)  1.721221
   H ( 15)  1.850948  1.708593
 
 A cutoff of  1.0D-11 yielded   1340 shell pairs
 There are     14283 function pairs
 
 -------------------------------------------------------
 OpenMP Integral Computing Module                       
 Release: version 1.0, May 2013, Q-Chem Inc. Pittsburgh 
 -------------------------------------------------------
 Integral Job Info:
 Integral job number is                      11
 Integral operator is                         1
 short-range coefficients                     0
 long-range coefficients              100000000
 Omega coefficients                           0
 if combine SR and LR in K                    0
 Integral screening is                        0
 Integral computing path is                   2
 max size of driver memory is            800000
 size of driver memory is                593474
 size of scratch memory is              2260544
 max col of scratch BK array               1296
 max len of scratch array in speh3          155
 max len of scratch index in speh4           18
 max int batch size is                      520
 min int batch size is                       52
 fixed nKL is                                52
 max L of basis functions is                  2
 order of int derivative is                   0
 number of shells is                         57
 number of basis is                         183
 number of cartesian basis is               183
 number of contracted shell pairs          1340
 number of primitive shell pairs           4436
 maxK2 (contraction) of shell pair           36
 max number of K2 of shell pair               1
 max number of CS2 of shell pair            181
 max number of PS2 of shell pair            990
 mem total for path MDJ                   40760
 -------------------------------------------------------
 Smallest overlap matrix eigenvalue = 1.68E-05
 Placing solute cavity origin at the center of mass
 Center of Onsager solute cavity (Angst): (   0.082831,  -0.070876,   0.007020)
 Solvent multipole matrices computed through 15th order
 Guess from superposition of atomic densities
 Warning:  Energy on first SCF cycle will be non-variational
 A restricted hybrid HF-DFT SCF calculation will be
 performed using Pulay DIIS extrapolation
 Kirkwood-Onsager solvation model will be applied
 Exchange:     0.2000 Hartree-Fock + 0.0800 Slater + 0.7200 B88
 Correlation:  0.1900 VWN1RPA + 0.8100 LYP
 Using SG-1 standard quadrature grid
 SCF converges when DIIS error is below 1.0E-08
 Kirkwood-Onsager SCRF: 
 Maximum multipole order     = 15
 Solvent dielectric constant = 78.3900
 Cavity radius               = 56.6917 bohr
 Born term (E_born)          = -0.03482849 a.u. = -21.8552 kcal/mol
 CPU 0.00 s  wall 0.00 s
 Inaccurate integrated density:
   Number of electrons =    70
   Numerical integral  =    68.000386589040
   Relative error      =    -2.8565905871 %
 CPU 4.00 s  wall 4.10 s
 ---------------------------------------
  Cycle       Energy         DIIS Error
 ---------------------------------------
    1    -495.7149522394      4.76E-02
 CPU 0.00 s  wall 0.00 s
 CPU 3.92 s  wall 3.92 s
    2    -494.4543744903      9.98E-03
 CPU 0.00 s  wall 0.00 s
 CPU 3.97 s  wall 3.97 s
    3    -492.8507232696      1.71E-02
 CPU 0.00 s  wall 0.00 s
 CPU 3.89 s  wall 3.89 s
    4    -494.7675831026      4.42E-03
 CPU 0.00 s  wall 0.00 s
 CPU 3.86 s  wall 3.86 s
    5    -494.8748592246      1.07E-03
 CPU 0.00 s  wall 0.00 s
 CPU 3.86 s  wall 3.86 s
    6    -494.8782510217      1.09E-03
 CPU 0.00 s  wall 0.00 s
 CPU 3.86 s  wall 3.86 s
    7    -494.8827940049      4.45E-04
 CPU 0.00 s  wall 0.00 s
 CPU 3.82 s  wall 3.82 s
    8    -494.8831378482      2.52E-04
 CPU 0.00 s  wall 0.00 s
 CPU 3.83 s  wall 3.83 s
    9    -494.8835030492      6.34E-05
 CPU 0.00 s  wall 0.00 s
 CPU 3.78 s  wall 3.78 s
   10    -494.8835056826      4.98E-05
 CPU 0.00 s  wall 0.00 s
 CPU 3.74 s  wall 3.74 s
   11    -494.8835189154      1.69E-05
 CPU 0.00 s  wall 0.00 s
 CPU 3.65 s  wall 3.65 s
   12    -494.8835202075      5.37E-06
 CPU 0.00 s  wall 0.00 s
 CPU 3.61 s  wall 3.61 s
   13    -494.8835203670      1.74E-06
 CPU 0.00 s  wall 0.00 s
 CPU 3.52 s  wall 3.52 s
   14    -494.8835203794      6.70E-07
 CPU 0.00 s  wall 0.00 s
 CPU 3.47 s  wall 3.47 s
   15    -494.8835203823      2.54E-07
 CPU 0.00 s  wall 0.00 s
 CPU 3.44 s  wall 3.44 s
   16    -494.8835203833      9.67E-08
 CPU 0.00 s  wall 0.00 s
 CPU 3.34 s  wall 3.34 s
   17    -494.8835203838      4.41E-08
 CPU 0.00 s  wall 0.00 s
 CPU 3.31 s  wall 3.31 s
   18    -494.8835203848      1.73E-08
 CPU 0.00 s  wall 0.00 s
 CPU 3.21 s  wall 3.21 s
   19    -494.8835203846      1.02E-08
 CPU 0.00 s  wall 0.00 s
 CPU 3.01 s  wall 3.01 s
   20    -494.8835203846      2.04E-09 Convergence criterion met
 ---------------------------------------
 SCF time:  CPU 163.83 s  wall 163.84 s
 SCF   energy in the final basis set = -494.8835203846
 Total energy in the final basis set = -494.8835203846
 
 --------------------------------------------------------------
 
                    Orbital Energies (a.u.)
 --------------------------------------------------------------
 
 Alpha MOs
 -- Occupied --
-19.071 -18.949 -18.881 -18.868 -10.119 -10.060  -9.924  -9.907
 -9.864  -0.967  -0.805  -0.788  -0.711  -0.490  -0.381  -0.353
 -0.350  -0.315  -0.277  -0.276  -0.272  -0.200  -0.189  -0.178
 -0.170  -0.146  -0.089  -0.086  -0.058  -0.029  -0.028  -0.019
 -0.011   0.011   0.117
 -- Virtual --
  0.150   0.153   0.210   0.222   0.228   0.235   0.246   0.246
  0.252   0.272   0.275   0.276   0.282   0.287   0.300   0.306
  0.322   0.329   0.333   0.346   0.351   0.356   0.378   0.391
  0.395   0.401   0.409   0.412   0.431   0.438   0.450   0.464
  0.472   0.473   0.486   0.490   0.507   0.511   0.518   0.526
  0.535   0.536   0.551   0.559   0.566   0.595   0.603   0.628
  0.643   0.687   0.776   0.793   0.856   0.874   0.940   0.944
  0.957   0.965   0.973   0.988   1.000   1.006   1.052   1.058
  1.093   1.176   1.184   1.231   1.239   1.241   1.249   1.280
  1.297   1.341   1.343   1.348   1.366   1.380   1.401   1.420
  1.445   1.478   1.495   1.518   1.525   1.543   1.580   1.585
  1.618   1.635   1.677   1.685   1.685   1.706   1.726   1.728
  1.734   1.794   1.842   1.866   1.880   1.936   1.957   1.988
  2.003   2.005   2.019   2.069   2.072   2.096   2.128   2.130
  2.135   2.159   2.209   2.234   2.250   2.255   2.277   2.439
  2.504   2.573   2.581   2.585   2.636   2.662   2.745   2.796
  2.796   2.803   2.927   2.951   2.977   3.072   3.197   3.236
  3.342   3.382   3.527   4.235   4.267   4.376   4.422   4.463
  4.543   4.581   4.749   4.981
 --------------------------------------------------------------
 
          Ground-State Mulliken Net Atomic Charges

     Atom                 Charge (a.u.)
  ----------------------------------------
      1 C                     0.281731
      2 O                    -0.666203
      3 O                    -0.614858
      4 C                     0.573444
      5 O                    -0.922763
      6 C                    -1.106633
      7 O                    -0.128858
      8 C                     0.080094
      9 H                     0.105250
     10 H                     0.120395
     11 H                     0.111305
     12 C                    -1.266728
     13 H                     0.362246
     14 H                     0.576685
     15 H                     0.494893
  ----------------------------------------
  Sum of atomic charges =    -2.000000

 -----------------------------------------------------------------
                    Cartesian Multipole Moments
 -----------------------------------------------------------------
    Charge (ESU x 10^10)
                -9.6064
    Dipole Moment (Debye)
         X       6.8004      Y      -7.7078      Z       0.7909
       Tot      10.3093
    Quadrupole Moments (Debye-Ang)
        XX    -182.4603     XY      39.7666     YY     -97.5238
        XZ      -4.1626     YZ      -8.9105     ZZ     -79.2961
    Octopole Moments (Debye-Ang^2)
       XXX     381.8804    XXY    -188.9099    XYY     112.8771
       YYY     -82.2127    XXZ     -34.2835    XYZ       3.9430
       YYZ       9.3677    XZZ       4.9738    YZZ      -1.6770
       ZZZ      34.1958
    Hexadecapole Moments (Debye-Ang^3)
      XXXX   -5028.9604   XXXY    1057.7197   XXYY   -1100.6912
      XYYY     349.6706   YYYY   -1163.5849   XXXZ     -56.5424
      XXYZ     -66.1053   XYYZ      10.7699   YYYZ     -70.7179
      XXZZ    -564.7358   XYZZ      58.2265   YYZZ    -256.9396
      XZZZ      25.5129   YZZZ     -60.9633   ZZZZ    -426.3974
 -----------------------------------------------------------------

 Begin NBO analysis for the ground state 


 *********************************** NBO 5.0 ***********************************
             N A T U R A L   A T O M I C   O R B I T A L   A N D
          N A T U R A L   B O N D   O R B I T A L   A N A L Y S I S
 *******************************************************************************
  (c) Copyright 1996-2002 Board of Regents of the University of Wisconsin System
      on behalf of the Theoretical Chemistry Institute.  All Rights Reserved.

          Cite this program as:

          NBO 5.0.  E. D. Glendening, J. K. Badenhoop, A. E. Reed,
          J. E. Carpenter, J. A. Bohmann, C. M. Morales, and F. Weinhold
          (Theoretical Chemistry Institute, University of Wisconsin,
          Madison, WI, 2001); http://www.chem.wisc.edu/~nbo5

       /PRINT  / : Print level set to  1
  This is a closed-shell NBO calculation

 Job title: Starting NBO analysis.                                          

 Storage needed:      168297 in NPA,      134749 in NBO (     7721424 available)


 NATURAL POPULATIONS:  Natural atomic orbital occupancies 
                                                          
  NAO Atom No lang   Type(AO)    Occupancy      Energy    
 ---------------------------------------------------------
   1    C  1  s      Cor( 1s)     1.99922      -9.94018
   2    C  1  s      Val( 2s)     0.77472       0.12385
   3    C  1  s      Ryd( 5s)     0.00558       2.11345
   4    C  1  s      Ryd( 4s)     0.00124       1.59771
   5    C  1  s      Ryd( 3s)     0.00016       1.45468
   6    C  1  px     Val( 2p)     0.78947       0.21483
   7    C  1  px     Ryd( 4p)     0.01038       0.97392
   8    C  1  px     Ryd( 3p)     0.00052       0.49732
   9    C  1  py     Val( 2p)     0.80659       0.22396
  10    C  1  py     Ryd( 4p)     0.01174       1.00341
  11    C  1  py     Ryd( 3p)     0.00095       0.49364
  12    C  1  pz     Val( 2p)     0.84980       0.18652
  13    C  1  pz     Ryd( 4p)     0.00651       0.95642
  14    C  1  pz     Ryd( 3p)     0.00086       0.49311
  15    C  1  dxy    Ryd( 3d)     0.00293       2.66716
  16    C  1  dxz    Ryd( 3d)     0.00173       2.65689
  17    C  1  dyz    Ryd( 3d)     0.00243       2.55429
  18    C  1  dx2y2  Ryd( 3d)     0.00311       2.54951
  19    C  1  dz2    Ryd( 3d)     0.00203       2.39486
 
  20    O  2  s      Cor( 1s)     1.99978     -18.66132
  21    O  2  s      Val( 2s)     1.71785      -0.63148
  22    O  2  s      Ryd( 3s)     0.00185       1.06704
  23    O  2  s      Ryd( 4s)     0.00048       2.07440
  24    O  2  s      Ryd( 5s)     0.00006       4.20860
  25    O  2  px     Val( 2p)     1.67851      -0.01663
  26    O  2  px     Ryd( 3p)     0.00203       0.80499
  27    O  2  px     Ryd( 4p)     0.00063       1.53857
  28    O  2  py     Val( 2p)     1.59051      -0.03292
  29    O  2  py     Ryd( 3p)     0.00165       0.68804
  30    O  2  py     Ryd( 4p)     0.00034       1.50857
  31    O  2  pz     Val( 2p)     1.78122      -0.01593
  32    O  2  pz     Ryd( 3p)     0.00267       0.65292
  33    O  2  pz     Ryd( 4p)     0.00040       1.45893
  34    O  2  dxy    Ryd( 3d)     0.00231       2.54074
  35    O  2  dxz    Ryd( 3d)     0.00070       2.23368
  36    O  2  dyz    Ryd( 3d)     0.00213       2.29267
  37    O  2  dx2y2  Ryd( 3d)     0.00206       2.42219
  38    O  2  dz2    Ryd( 3d)     0.00109       2.25746
 
  39    O  3  s      Cor( 1s)     1.99980     -18.61664
  40    O  3  s      Val( 2s)     1.71668      -0.62375
  41    O  3  s      Ryd( 3s)     0.00059       1.48955
  42    O  3  s      Ryd( 4s)     0.00017       2.53600
  43    O  3  s      Ryd( 5s)     0.00002       3.15866
  44    O  3  px     Val( 2p)     1.56196      -0.01429
  45    O  3  px     Ryd( 3p)     0.00125       0.80814
  46    O  3  px     Ryd( 4p)     0.00016       1.45195
  47    O  3  py     Val( 2p)     1.79788       0.00506
  48    O  3  py     Ryd( 3p)     0.00264       0.74327
  49    O  3  py     Ryd( 4p)     0.00008       1.41885
  50    O  3  pz     Val( 2p)     1.63430      -0.00095
  51    O  3  pz     Ryd( 3p)     0.00182       0.76194
  52    O  3  pz     Ryd( 4p)     0.00006       1.40852
  53    O  3  dxy    Ryd( 3d)     0.00231       2.38787
  54    O  3  dxz    Ryd( 3d)     0.00298       2.56340
  55    O  3  dyz    Ryd( 3d)     0.00135       2.22338
  56    O  3  dx2y2  Ryd( 3d)     0.00237       2.35035
  57    O  3  dz2    Ryd( 3d)     0.00212       2.24157
 
  58    C  4  s      Cor( 1s)     1.99863      -9.78297
  59    C  4  s      Val( 2s)     1.02055       0.06390
  60    C  4  s      Ryd( 3s)     0.00936       1.10556
  61    C  4  s      Ryd( 4s)     0.00061       1.47202
  62    C  4  s      Ryd( 5s)     0.00007       3.51546
  63    C  4  px     Val( 2p)     1.05037       0.16902
  64    C  4  px     Ryd( 4p)     0.00318       0.88729
  65    C  4  px     Ryd( 3p)     0.00033       0.77257
  66    C  4  py     Val( 2p)     1.03719       0.18044
  67    C  4  py     Ryd( 4p)     0.00256       0.89608
  68    C  4  py     Ryd( 3p)     0.00019       0.70111
  69    C  4  pz     Val( 2p)     1.14038       0.18375
  70    C  4  pz     Ryd( 4p)     0.00614       0.96919
  71    C  4  pz     Ryd( 3p)     0.00033       0.93749
  72    C  4  dxy    Ryd( 3d)     0.00065       2.24471
  73    C  4  dxz    Ryd( 3d)     0.00097       2.68808
  74    C  4  dyz    Ryd( 3d)     0.00079       2.44191
  75    C  4  dx2y2  Ryd( 3d)     0.00050       2.24902
  76    C  4  dz2    Ryd( 3d)     0.00064       2.38197
 
  77    O  5  s      Cor( 1s)     1.99985     -18.77138
  78    O  5  s      Val( 2s)     1.72854      -0.71600
  79    O  5  s      Ryd( 3s)     0.00201       1.44513
  80    O  5  s      Ryd( 4s)     0.00083       1.46057
  81    O  5  s      Ryd( 5s)     0.00005       3.95611
  82    O  5  px     Val( 2p)     1.61561      -0.09913
  83    O  5  px     Ryd( 3p)     0.00317       0.60679
  84    O  5  px     Ryd( 4p)     0.00033       1.51885
  85    O  5  py     Val( 2p)     1.83765      -0.10611
  86    O  5  py     Ryd( 3p)     0.00344       0.60916
  87    O  5  py     Ryd( 4p)     0.00035       1.42478
  88    O  5  pz     Val( 2p)     1.78472      -0.10664
  89    O  5  pz     Ryd( 3p)     0.00310       0.56811
  90    O  5  pz     Ryd( 4p)     0.00021       1.43909
  91    O  5  dxy    Ryd( 3d)     0.00041       2.01136
  92    O  5  dxz    Ryd( 3d)     0.00340       2.57978
  93    O  5  dyz    Ryd( 3d)     0.00102       2.09082
  94    O  5  dx2y2  Ryd( 3d)     0.00185       2.35538
  95    O  5  dz2    Ryd( 3d)     0.00120       1.95900
 
  96    C  6  s      Cor( 1s)     1.99890      -9.73984
  97    C  6  s      Val( 2s)     1.39694      -0.03128
  98    C  6  s      Ryd( 3s)     0.01671       1.00359
  99    C  6  s      Ryd( 4s)     0.00078       1.52780
 100    C  6  s      Ryd( 5s)     0.00003       4.34031
 101    C  6  px     Val( 2p)     1.01373       0.22223
 102    C  6  px     Ryd( 4p)     0.00410       0.78055
 103    C  6  px     Ryd( 3p)     0.00044       0.67898
 104    C  6  py     Val( 2p)     0.92697       0.19676
 105    C  6  py     Ryd( 4p)     0.00268       0.79823
 106    C  6  py     Ryd( 3p)     0.00040       0.56269
 107    C  6  pz     Val( 2p)     1.10203       0.20076
 108    C  6  pz     Ryd( 4p)     0.00248       0.75853
 109    C  6  pz     Ryd( 3p)     0.00042       0.61911
 110    C  6  dxy    Ryd( 3d)     0.00073       2.25796
 111    C  6  dxz    Ryd( 3d)     0.00115       2.58288
 112    C  6  dyz    Ryd( 3d)     0.00148       2.28791
 113    C  6  dx2y2  Ryd( 3d)     0.00051       2.18642
 114    C  6  dz2    Ryd( 3d)     0.00145       2.33685
 
 115    O  7  s      Cor( 1s)     1.99982     -18.81327
 116    O  7  s      Val( 2s)     1.73753      -0.82642
 117    O  7  s      Ryd( 3s)     0.00813       1.03527
 118    O  7  s      Ryd( 4s)     0.00012       2.22071
 119    O  7  s      Ryd( 5s)     0.00001       3.43205
 120    O  7  px     Val( 2p)     1.56354      -0.17494
 121    O  7  px     Ryd( 3p)     0.00050       0.85823
 122    O  7  px     Ryd( 4p)     0.00006       1.05378
 123    O  7  py     Val( 2p)     1.55335      -0.16918
 124    O  7  py     Ryd( 3p)     0.00076       0.84730
 125    O  7  py     Ryd( 4p)     0.00009       1.06742
 126    O  7  pz     Val( 2p)     1.62250      -0.20657
 127    O  7  pz     Ryd( 3p)     0.00083       0.93510
 128    O  7  pz     Ryd( 4p)     0.00025       1.05985
 129    O  7  dxy    Ryd( 3d)     0.00235       2.00774
 130    O  7  dxz    Ryd( 3d)     0.00692       2.26551
 131    O  7  dyz    Ryd( 3d)     0.00552       2.16593
 132    O  7  dx2y2  Ryd( 3d)     0.00203       1.97651
 133    O  7  dz2    Ryd( 3d)     0.00676       2.21358
 
 134    C  8  s      Cor( 1s)     1.99981      -9.99085
 135    C  8  s      Val( 2s)     1.65083      -0.25601
 136    C  8  s      Ryd( 4s)     0.02593       0.93187
 137    C  8  s      Ryd( 3s)     0.00024       0.79563
 138    C  8  s      Ryd( 5s)     0.00007       4.06628
 139    C  8  px     Val( 2p)     0.55873       0.12384
 140    C  8  px     Ryd( 4p)     0.00514       0.60203
 141    C  8  px     Ryd( 3p)     0.00152       0.52548
 142    C  8  py     Val( 2p)     0.53178       0.10893
 143    C  8  py     Ryd( 4p)     0.00510       0.58757
 144    C  8  py     Ryd( 3p)     0.00112       0.53573
 145    C  8  pz     Val( 2p)     0.73495       0.19336
 146    C  8  pz     Ryd( 4p)     0.00670       0.63787
 147    C  8  pz     Ryd( 3p)     0.00085       0.49440
 148    C  8  dxy    Ryd( 3d)     0.00072       2.06441
 149    C  8  dxz    Ryd( 3d)     0.00185       2.38631
 150    C  8  dyz    Ryd( 3d)     0.00178       2.31239
 151    C  8  dx2y2  Ryd( 3d)     0.00080       2.05309
 152    C  8  dz2    Ryd( 3d)     0.00239       2.41856
 
 153    H  9  s      Val( 1s)     0.84368       0.35491
 154    H  9  s      Ryd( 2s)     0.00039       1.04163
 
 155    H 10  s      Val( 1s)     0.83363       0.36574
 156    H 10  s      Ryd( 2s)     0.00042       1.01203
 
 157    H 11  s      Val( 1s)     0.83864       0.35879
 158    H 11  s      Ryd( 2s)     0.00032       1.00695
 
 159    C 12  s      Cor( 1s)     1.99957      -9.75812
 160    C 12  s      Val( 2s)     1.25815       0.01618
 161    C 12  s      Ryd( 3s)     0.00310       0.59238
 162    C 12  s      Ryd( 4s)     0.00008       1.10304
 163    C 12  s      Ryd( 5s)     0.00000       4.42847
 164    C 12  px     Val( 2p)     1.74778       0.16093
 165    C 12  px     Ryd( 3p)     0.05618       0.42381
 166    C 12  px     Ryd( 4p)     0.00012       0.89889
 167    C 12  py     Val( 2p)     1.14098       0.24807
 168    C 12  py     Ryd( 3p)     0.02051       0.38968
 169    C 12  py     Ryd( 4p)     0.00011       0.91008
 170    C 12  pz     Val( 2p)     1.16072       0.24578
 171    C 12  pz     Ryd( 3p)     0.02206       0.39059
 172    C 12  pz     Ryd( 4p)     0.00006       0.88159
 173    C 12  dxy    Ryd( 3d)     0.00101       2.15826
 174    C 12  dxz    Ryd( 3d)     0.00110       2.18947
 175    C 12  dyz    Ryd( 3d)     0.00097       2.38221
 176    C 12  dx2y2  Ryd( 3d)     0.00079       2.22643
 177    C 12  dz2    Ryd( 3d)     0.00057       2.23764
 
 178    H 13  s      Val( 1s)     0.57425       0.27585
 179    H 13  s      Ryd( 2s)     0.00616       1.16973
 
 180    H 14  s      Val( 1s)     0.45386       0.35348
 181    H 14  s      Ryd( 2s)     0.00402       1.20741
 
 182    H 15  s      Val( 1s)     0.46778       0.40091
 183    H 15  s      Ryd( 2s)     0.00375       1.12692
 
   1 low occupancy (<1.9990e) core orbital  found on  C  4
   1 low occupancy (<1.9990e) core orbital  found on  C  6
 
     Population inversion found on atom  C  1
     Population inversion found on atom  C  4
     Population inversion found on atom  C  6
     Population inversion found on atom  C  8


 Summary of Natural Population Analysis:

                                     Natural Population
             Natural    ---------------------------------------------
  Atom No    Charge        Core      Valence    Rydberg      Total
 --------------------------------------------------------------------
    C  1    0.73006      1.99922     3.22058    0.05015     5.26994
    O  2   -0.78629      1.99978     6.76809    0.01841     8.78629
    O  3   -0.72854      1.99980     6.71081    0.01793     8.72854
    C  4   -0.27344      1.99863     4.24850    0.02631     6.27344
    O  5   -0.98775      1.99985     6.96653    0.02137     8.98775
    C  6   -0.47192      1.99890     4.43966    0.03336     6.47192
    O  7   -0.51107      1.99982     6.47692    0.03433     8.51107
    C  8    0.46970      1.99981     3.47629    0.05420     5.53030
    H  9    0.15593      0.00000     0.84368    0.00039     0.84407
    H 10    0.16595      0.00000     0.83363    0.00042     0.83405
    H 11    0.16104      0.00000     0.83864    0.00032     0.83896
    C 12   -1.41386      1.99957     5.30763    0.10666     7.41386
    H 13    0.41959      0.00000     0.57425    0.00616     0.58041
    H 14    0.54212      0.00000     0.45386    0.00402     0.45788
    H 15    0.52847      0.00000     0.46778    0.00375     0.47153
 ====================================================================
 * Total * -2.00000     17.99538    51.62682    0.37780    70.00000

                                 Natural Population      
 --------------------------------------------------------
   Core                      17.99538 ( 99.9743% of  18)
   Valence                   51.62682 ( 99.2823% of  52)
   Natural Minimal Basis     69.62220 ( 99.4603% of  70)
   Natural Rydberg Basis      0.37780 (  0.5397% of  70)
 --------------------------------------------------------

    Atom No         Natural Electron Configuration
 ----------------------------------------------------------------------------
      C  1      [core]2s( 0.77)2p( 2.45)3d( 0.01)4p( 0.03)5s( 0.01)
      O  2      [core]2s( 1.72)2p( 5.05)3p( 0.01)3d( 0.01)
      O  3      [core]2s( 1.72)2p( 4.99)3p( 0.01)3d( 0.01)
      C  4      [core]2s( 1.02)2p( 3.23)3s( 0.01)4p( 0.01)
      O  5      [core]2s( 1.73)2p( 5.24)3p( 0.01)3d( 0.01)
      C  6      [core]2s( 1.40)2p( 3.04)3s( 0.02)3d( 0.01)4p( 0.01)
      O  7      [core]2s( 1.74)2p( 4.74)3s( 0.01)3d( 0.02)
      C  8      [core]2s( 1.65)2p( 1.83)4s( 0.03)3d( 0.01)4p( 0.02)
      H  9            1s( 0.84)
      H 10            1s( 0.83)
      H 11            1s( 0.84)
      C 12      [core]2s( 1.26)2p( 4.05)3p( 0.10)
      H 13            1s( 0.57)2s( 0.01)
      H 14            1s( 0.45)
      H 15            1s( 0.47)


 NATURAL BOND ORBITAL ANALYSIS:

                       Occupancies       Lewis Structure    Low   High
           Occ.    -------------------  -----------------   occ   occ
  Cycle   Thresh.   Lewis   Non-Lewis     CR  BD  3C  LP    (L)   (NL)   Dev
 =============================================================================
   1(1)    1.90    68.15826   1.84174      9  17   0   9     6      5    0.46
   2(2)    1.90    67.97455   2.02545      9  17   0   9     5      5    0.41
   3(3)    1.90    68.31301   1.68699      9  17   0   9     6      5    0.36
   4(4)    1.90    67.97455   2.02545      9  17   0   9     5      5    0.41
   5(5)    1.90    68.31301   1.68699      9  17   0   9     6      5    0.36
   6(1)    1.80    68.58942   1.41058      9  16   0  10     3      4    0.36
   7(2)    1.80    68.25097   1.74903      9  16   0  10     3      4    0.41
   8(3)    1.80    68.58942   1.41058      9  16   0  10     3      4    0.36
   9(1)    1.70    68.22010   1.77990      9  16   0  10     0      3    0.46
  10(2)    1.70    68.40186   1.59814      9  15   0  11     1      3    0.41
  11(3)    1.70    68.22010   1.77990      9  16   0  10     0      3    0.46
  12(4)    1.70    68.40186   1.59814      9  15   0  11     1      3    0.41
  13(1)    1.60    68.13497   1.86503      9  14   0  12     0      3    0.46
  14(2)    1.60    68.13497   1.86503      9  14   0  12     0      3    0.46
  15(1)    1.50    66.35399   3.64601      9  10   0  16     0      6    1.23
  16(2)    1.50    66.35399   3.64601      9  10   0  16     0      6    1.23
  17(1)    1.80    68.58942   1.41058      9  16   0  10     3      4    0.36
 -----------------------------------------------------------------------------

 Strongly delocalized structure accepted

           1 low occupancy (<1.9990e) core orbital  found on  C 4
           1 low occupancy (<1.9990e) core orbital  found on  C 6

 --------------------------------------------------------
   Core                     17.99538 ( 99.974% of  18)
   Valence Lewis            50.59404 ( 97.296% of  52)
  ==================       ============================
   Total Lewis              68.58942 ( 97.985% of  70)
  -----------------------------------------------------
   Valence non-Lewis         1.27501 (  1.821% of  70)
   Rydberg non-Lewis         0.13557 (  0.194% of  70)
  ==================       ============================
   Total non-Lewis           1.41058 (  2.015% of  70)
 --------------------------------------------------------


     (Occupancy)   Bond orbital/ Coefficients/ Hybrids
 -------------------------------------------------------------------------------
   1. (1.98771) BD ( 1) C  1- O  2       
               ( 33.29%)   0.5770* C  1 s( 31.58%)p 2.16( 68.22%)d 0.01(  0.20%)
                                        -0.0004  0.5619 -0.0114  0.0045 -0.0010
                                        -0.4031  0.0089  0.0064  0.6964 -0.0548
                                        -0.0020  0.1768 -0.0169  0.0050 -0.0321
                                        -0.0128  0.0114 -0.0092 -0.0236
               ( 66.71%)   0.8167* O  2 s( 29.67%)p 2.36( 70.12%)d 0.01(  0.21%)
                                         0.0000  0.5446  0.0044 -0.0098 -0.0036
                                         0.2549 -0.0163  0.0006 -0.7869  0.0134
                                         0.0065  0.1286 -0.0028  0.0000 -0.0255
                                        -0.0022  0.0024 -0.0289 -0.0252
   2. (1.99626) BD ( 1) C  1- O  3       
               ( 35.31%)   0.5942* C  1 s( 33.89%)p 1.95( 65.97%)d 0.00(  0.14%)
                                         0.0001 -0.5814  0.0287  0.0011 -0.0001
                                        -0.6068  0.0390  0.0028  0.2403 -0.0006
                                        -0.0060 -0.4808  0.0320 -0.0024  0.0131
                                        -0.0255  0.0152 -0.0184 -0.0004
               ( 64.69%)   0.8043* O  3 s( 38.64%)p 1.58( 61.08%)d 0.01(  0.29%)
                                         0.0000 -0.6214  0.0144 -0.0031  0.0006
                                         0.6451 -0.0154 -0.0004 -0.2080  0.0065
                                         0.0008  0.3885 -0.0100  0.0003  0.0209
                                        -0.0378  0.0159 -0.0272  0.0046
   3. (1.98200) BD ( 2) C  1- O  3       
               ( 26.14%)   0.5112* C  1 s(  0.61%)p99.99( 99.09%)d 0.48(  0.30%)
                                         0.0000 -0.0783  0.0025 -0.0005  0.0020
                                        -0.6117 -0.0275 -0.0147 -0.4519 -0.0105
                                        -0.0064  0.6405  0.0313  0.0126 -0.0009
                                         0.0124 -0.0245 -0.0339  0.0324
               ( 73.86%)   0.8594* O  3 s(  0.08%)p99.99( 99.70%)d 2.63(  0.22%)
                                         0.0000 -0.0287  0.0009 -0.0005 -0.0001
                                        -0.5817  0.0039  0.0002 -0.4117  0.0038
                                         0.0001  0.6993 -0.0059 -0.0007  0.0080
                                        -0.0108  0.0199  0.0263 -0.0301
   4. (1.98684) BD ( 1) C  1- C  4       
               ( 46.75%)   0.6838* C  1 s( 33.77%)p 1.96( 66.15%)d 0.00(  0.08%)
                                         0.0001  0.5801  0.0343 -0.0027  0.0006
                                        -0.3021 -0.0187  0.0107 -0.4966  0.0107
                                         0.0071 -0.5681 -0.0129  0.0119  0.0165
                                         0.0090  0.0189 -0.0037  0.0095
               ( 53.25%)   0.7297* C  4 s( 44.13%)p 1.26( 55.81%)d 0.00(  0.07%)
                                        -0.0003  0.6632 -0.0385  0.0004 -0.0004
                                         0.4230  0.0051 -0.0016  0.2869 -0.0028
                                         0.0029  0.5448  0.0042 -0.0014  0.0125
                                         0.0100  0.0185 -0.0043  0.0071
   5. (1.99352) BD ( 1) C  4- C  6       
               ( 53.80%)   0.7335* C  4 s( 55.43%)p 0.80( 44.48%)d 0.00(  0.09%)
                                        -0.0002  0.7436  0.0371  0.0013  0.0005
                                        -0.2967  0.0138 -0.0040 -0.3015  0.0106
                                         0.0023 -0.5146  0.0256 -0.0015  0.0064
                                         0.0230  0.0095  0.0079  0.0118
               ( 46.20%)   0.6797* C  6 s( 45.73%)p 1.18( 54.15%)d 0.00(  0.13%)
                                         0.0001  0.6701  0.0908  0.0044  0.0019
                                         0.5410  0.0491 -0.0018 -0.0696 -0.0207
                                        -0.0025  0.4903  0.0273 -0.0012  0.0023
                                         0.0305  0.0056  0.0133  0.0117
   6. (1.94872) BD ( 2) C  4- C  6       
               ( 43.93%)   0.6628* C  4 s(  0.93%)p99.99( 98.98%)d 0.10(  0.09%)
                                         0.0000  0.0632  0.0724 -0.0101 -0.0008
                                        -0.6348  0.0207  0.0047  0.7629  0.0354
                                         0.0000  0.0196  0.0501  0.0080 -0.0182
                                         0.0180 -0.0096  0.0107 -0.0071
               ( 56.07%)   0.7488* C  6 s(  4.11%)p23.29( 95.73%)d 0.04(  0.16%)
                                         0.0000 -0.1925  0.0606 -0.0191 -0.0006
                                        -0.1362  0.0111  0.0066  0.8188 -0.0199
                                        -0.0036  0.5172 -0.0140  0.0018  0.0069
                                         0.0019  0.0351 -0.0146  0.0095
   7. (1.91504) BD ( 3) C  4- C  6       
               ( 58.20%)   0.7629* C  4 s(  0.10%)p99.99( 99.86%)d 0.49(  0.05%)
                                        -0.0001 -0.0312  0.0006  0.0006  0.0000
                                         0.5662 -0.0024  0.0038  0.4916 -0.0004
                                         0.0023 -0.6603 -0.0137 -0.0026 -0.0043
                                         0.0018 -0.0106 -0.0124  0.0137
               ( 41.80%)   0.6466* C  6 s(  0.95%)p99.99( 98.86%)d 0.20(  0.19%)
                                         0.0003  0.0974  0.0049  0.0025 -0.0010
                                         0.5365  0.0139  0.0061  0.5240  0.0075
                                         0.0030 -0.6526  0.0016 -0.0042  0.0194
                                         0.0053  0.0111  0.0071 -0.0366
   8. (1.99722) BD ( 1) O  5- H 14       
               ( 83.86%)   0.9158* O  5 s( 26.11%)p 2.83( 73.76%)d 0.00(  0.13%)
                                        -0.0001  0.5109  0.0057 -0.0042  0.0002
                                         0.6474 -0.0111  0.0063  0.2240 -0.0089
                                        -0.0025  0.5177 -0.0020  0.0047 -0.0039
                                         0.0282  0.0029  0.0180  0.0126
               ( 16.14%)   0.4017* H 14 s(100.00%)
                                         0.9993  0.0374
   9. (1.99756) BD ( 1) O  5- H 15       
               ( 77.48%)   0.8802* O  5 s( 25.12%)p 2.97( 74.69%)d 0.01(  0.19%)
                                        -0.0001  0.5010 -0.0136  0.0028 -0.0014
                                        -0.7334  0.0380  0.0090 -0.0614 -0.0096
                                         0.0022  0.4512 -0.0090 -0.0052  0.0116
                                        -0.0359 -0.0068  0.0190  0.0067
               ( 22.52%)   0.4746* H 15 s(100.00%)
                                         0.9999 -0.0162
  10. (1.86675) BD ( 1) C  6- H 13       
               ( 80.62%)   0.8979* C  6 s( 50.14%)p 0.99( 49.80%)d 0.00(  0.06%)
                                        -0.0008  0.7076 -0.0242 -0.0098 -0.0010
                                        -0.6280  0.0040  0.0082  0.2142  0.0121
                                        -0.0131 -0.2388  0.0145 -0.0084 -0.0141
                                        -0.0133  0.0103 -0.0099 -0.0042
               ( 19.38%)   0.4402* H 13 s(100.00%)
                                         0.9972 -0.0750
  11. (1.99985) BD ( 1) O  7- C  8       
               ( 76.95%)   0.8772* O  7 s(  0.44%)p99.99( 99.20%)d 0.84(  0.37%)
                                         0.0000  0.0658 -0.0058 -0.0001 -0.0001
                                         0.7927  0.0008  0.0044 -0.5123  0.0003
                                        -0.0022 -0.3182  0.0007 -0.0002 -0.0023
                                        -0.0272  0.0333 -0.0337  0.0259
               ( 23.05%)   0.4801* C  8 s(  0.26%)p99.99( 99.18%)d 2.14(  0.56%)
                                         0.0000  0.0472 -0.0192  0.0009  0.0004
                                         0.8642 -0.0121 -0.0015 -0.4568  0.0022
                                         0.0030 -0.1900 -0.0047  0.0022  0.0053
                                         0.0461 -0.0339  0.0403 -0.0251
  12. (1.99943) BD ( 2) O  7- C  8       
               ( 76.61%)   0.8753* O  7 s(  2.63%)p36.84( 96.99%)d 0.14(  0.38%)
                                         0.0000 -0.1620  0.0083  0.0033 -0.0014
                                         0.4067 -0.0012  0.0007  0.8257  0.0001
                                         0.0034 -0.3501 -0.0035 -0.0057 -0.0344
                                        -0.0148 -0.0360  0.0060  0.0328
               ( 23.39%)   0.4836* C  8 s(  1.34%)p73.15( 98.11%)d 0.41(  0.55%)
                                         0.0000 -0.1094  0.0373 -0.0071  0.0022
                                         0.2168  0.0028 -0.0057  0.6819 -0.0023
                                        -0.0070 -0.6847  0.0161 -0.0034  0.0298
                                        -0.0066  0.0276 -0.0090 -0.0607
  13. (1.99894) BD ( 3) O  7- C  8       
               ( 71.91%)   0.8480* O  7 s( 41.97%)p 1.37( 57.37%)d 0.02(  0.67%)
                                         0.0000 -0.6456  0.0537  0.0022  0.0004
                                         0.3281 -0.0069 -0.0024 -0.0004 -0.0075
                                        -0.0012  0.6825 -0.0089 -0.0081 -0.0156
                                        -0.0550 -0.0296 -0.0118 -0.0487
               ( 28.09%)   0.5300* C  8 s( 24.81%)p 3.02( 74.87%)d 0.01(  0.33%)
                                         0.0000 -0.4623  0.1852 -0.0034 -0.0033
                                        -0.3752  0.0373 -0.0102 -0.5320  0.0272
                                        -0.0115 -0.5635  0.0698 -0.0122 -0.0228
                                        -0.0312 -0.0384  0.0018 -0.0169
  14. (1.99787) BD ( 1) H  9- C 12       
               ( 42.23%)   0.6498* H  9 s(100.00%)
                                         1.0000  0.0000
               ( 57.77%)   0.7601* C 12 s( 28.32%)p 2.53( 71.57%)d 0.00(  0.11%)
                                         0.0000  0.5319  0.0149 -0.0009 -0.0001
                                         0.2459  0.0061 -0.0054 -0.7825 -0.1058
                                        -0.0010  0.1766  0.0196  0.0013 -0.0253
                                         0.0047 -0.0102 -0.0159 -0.0109
  15. (1.99919) BD ( 1) H 10- C 12       
               ( 41.70%)   0.6457* H 10 s(100.00%)
                                         1.0000  0.0000
               ( 58.30%)   0.7636* C 12 s( 28.60%)p 2.49( 71.29%)d 0.00(  0.11%)
                                         0.0000  0.5346  0.0139 -0.0016  0.0000
                                         0.3201  0.0203 -0.0048  0.2949  0.0374
                                         0.0010 -0.7154 -0.0991 -0.0003  0.0103
                                        -0.0269 -0.0130  0.0025  0.0117
  16. (1.99949) BD ( 1) H 11- C 12       
               ( 41.94%)   0.6476* H 11 s(100.00%)
                                         1.0000  0.0000
               ( 58.06%)   0.7620* C 12 s( 28.82%)p 2.47( 71.06%)d 0.00(  0.11%)
                                         0.0000  0.5368  0.0115  0.0035  0.0001
                                         0.0773 -0.0120 -0.0013  0.5272  0.0671
                                         0.0016  0.6446  0.0805  0.0012  0.0109
                                         0.0130  0.0236 -0.0113  0.0127
  17. (1.99922) CR ( 1) C  1             s(100.00%)p 0.00(  0.00%)
                                         1.0000  0.0002  0.0000  0.0000  0.0000
                                         0.0000  0.0000  0.0000  0.0003  0.0000
                                         0.0000  0.0001  0.0000  0.0000  0.0000
                                         0.0000  0.0000  0.0000  0.0000
  18. (1.99978) CR ( 1) O  2             s(100.00%)
                                         1.0000  0.0001  0.0000  0.0000  0.0000
                                         0.0000  0.0000  0.0000  0.0001  0.0000
                                         0.0000  0.0001  0.0000  0.0000  0.0000
                                         0.0000  0.0000  0.0000  0.0000
  19. (1.99979) CR ( 1) O  3             s(100.00%)p 0.00(  0.00%)
                                         1.0000  0.0003  0.0000  0.0000  0.0000
                                         0.0002  0.0000  0.0000 -0.0001  0.0000
                                         0.0000  0.0001  0.0000  0.0000  0.0000
                                         0.0000  0.0000  0.0000  0.0000
  20. (1.99864) CR ( 1) C  4             s(100.00%)p 0.00(  0.00%)
                                         1.0000  0.0004  0.0000  0.0000  0.0000
                                         0.0002  0.0000  0.0000  0.0001  0.0000
                                         0.0000  0.0000  0.0000  0.0000  0.0000
                                         0.0000  0.0000  0.0000  0.0000
  21. (1.99985) CR ( 1) O  5             s(100.00%)
                                         1.0000  0.0001  0.0000  0.0000  0.0000
                                         0.0000  0.0000  0.0000  0.0000  0.0000
                                         0.0000  0.0000  0.0000  0.0000  0.0000
                                         0.0000  0.0000  0.0000  0.0000
  22. (1.99890) CR ( 1) C  6             s(100.00%)p 0.00(  0.00%)
                                         1.0000  0.0005  0.0000  0.0000  0.0000
                                        -0.0007  0.0000  0.0000  0.0000  0.0000
                                         0.0000  0.0000  0.0000  0.0000  0.0000
                                         0.0000  0.0000  0.0000  0.0000
  23. (1.99982) CR ( 1) O  7             s(100.00%)p 0.00(  0.00%)
                                         1.0000  0.0002  0.0000  0.0000  0.0000
                                         0.0001  0.0000  0.0000  0.0001  0.0000
                                         0.0000  0.0002  0.0000  0.0000  0.0000
                                         0.0000  0.0000  0.0000  0.0000
  24. (1.99981) CR ( 1) C  8             s(100.00%)
                                         1.0000  0.0001  0.0000  0.0000  0.0000
                                         0.0000  0.0000  0.0000  0.0000  0.0000
                                         0.0000 -0.0001  0.0000  0.0000  0.0000
                                         0.0000  0.0000  0.0000  0.0000
  25. (1.99957) CR ( 1) C 12             s(100.00%)p 0.00(  0.00%)
                                         1.0000 -0.0002  0.0000  0.0000  0.0000
                                         0.0003 -0.0001  0.0000  0.0000  0.0000
                                         0.0000  0.0000  0.0000  0.0000  0.0000
                                         0.0000  0.0000  0.0000  0.0000
  26. (1.94600) LP ( 1) O  2             s( 51.25%)p 0.95( 48.70%)d 0.00(  0.05%)
                                        -0.0001  0.7158 -0.0106  0.0010  0.0023
                                         0.0656  0.0067  0.0023  0.5786 -0.0002
                                        -0.0083  0.3845  0.0045 -0.0026 -0.0029
                                         0.0028 -0.0159  0.0156  0.0020
  27. (1.79687) LP ( 2) O  2             s( 18.06%)p 4.53( 81.86%)d 0.00(  0.08%)
                                         0.0000  0.4246  0.0151  0.0068 -0.0009
                                        -0.6164  0.0065 -0.0158 -0.0148 -0.0093
                                        -0.0029 -0.6618 -0.0056 -0.0090  0.0137
                                         0.0097  0.0223 -0.0006  0.0045
  28. (1.67860) LP ( 3) O  2             s(  1.04%)p94.70( 98.81%)d 0.14(  0.15%)
                                         0.0000  0.1021 -0.0023 -0.0030 -0.0008
                                         0.7406 -0.0005 -0.0006  0.2082  0.0113
                                        -0.0023 -0.6293 -0.0104  0.0084 -0.0256
                                        -0.0160  0.0198  0.0123  0.0066
  29. (1.97768) LP ( 1) O  3             s( 61.26%)p 0.63( 38.70%)d 0.00(  0.04%)
                                        -0.0004  0.7827  0.0075 -0.0012  0.0004
                                         0.4921 -0.0029 -0.0022 -0.1813  0.0006
                                         0.0003  0.3346 -0.0029 -0.0016  0.0082
                                        -0.0144  0.0045 -0.0081  0.0016
  30. (1.88022) LP ( 2) O  3             s(  0.00%)p 1.00( 99.83%)d 0.00(  0.17%)
                                         0.0001  0.0006  0.0027  0.0016  0.0003
                                        -0.0183 -0.0020  0.0010  0.8674  0.0108
                                         0.0020  0.4955  0.0049  0.0018 -0.0279
                                        -0.0157 -0.0140 -0.0093 -0.0189
  31. (1.99582) LP ( 1) O  5             s( 22.69%)p 3.40( 77.25%)d 0.00(  0.06%)
                                        -0.0001  0.4762 -0.0079  0.0048  0.0015
                                        -0.1026 -0.0036 -0.0017  0.6227  0.0235
                                        -0.0046 -0.6108 -0.0214  0.0055 -0.0002
                                        -0.0027  0.0202  0.0093 -0.0098
  32. (1.73187) LP ( 2) O  5             s( 26.06%)p 2.83( 73.87%)d 0.00(  0.07%)
                                         0.0000  0.5103  0.0133 -0.0030 -0.0010
                                         0.1690 -0.0055  0.0056 -0.7460 -0.0091
                                        -0.0099 -0.3916  0.0044 -0.0025 -0.0077
                                         0.0006  0.0037 -0.0173 -0.0188
  33. (1.99147) LP ( 1) O  7             s( 55.26%)p 0.81( 44.64%)d 0.00(  0.11%)
                                        -0.0003  0.7425  0.0352  0.0019  0.0001
                                         0.3058  0.0013 -0.0006  0.2266 -0.0020
                                         0.0012  0.5490  0.0081 -0.0053 -0.0092
                                        -0.0213 -0.0164 -0.0027 -0.0157
  34. (1.99697) LP ( 1) C  8             s( 76.23%)p 0.31( 23.74%)d 0.00(  0.03%)
                                        -0.0001  0.8726  0.0293 -0.0008 -0.0005
                                        -0.2279 -0.0204  0.0051 -0.1797 -0.0218
                                         0.0012 -0.3892 -0.0246  0.0130 -0.0042
                                        -0.0109 -0.0081 -0.0015 -0.0088
  35. (1.93216) LP ( 1) C 12             s( 13.85%)p 6.22( 86.13%)d 0.00(  0.02%)
                                         0.0003  0.3705 -0.0346 -0.0008  0.0000
                                        -0.8968  0.1690  0.0008 -0.0641  0.0138
                                        -0.0011 -0.1509  0.0361 -0.0037 -0.0015
                                        -0.0041 -0.0005 -0.0133  0.0067
  36. (0.01691) RY*( 1) C  1             s(  1.93%)p49.15( 94.70%)d 1.75(  3.37%)
                                         0.0000  0.0096  0.1323 -0.0363  0.0186
                                         0.0324  0.6638  0.0038 -0.0542 -0.6708
                                         0.0018  0.0037  0.2291  0.0004 -0.1061
                                        -0.0926  0.0266 -0.0654 -0.0942
  37. (0.01183) RY*( 2) C  1             s( 25.94%)p 2.29( 59.32%)d 0.57( 14.74%)
                                         0.0000  0.0430  0.4867  0.1380  0.0399
                                         0.0195  0.2850  0.0242  0.0366  0.4825
                                         0.0700  0.0391  0.5172  0.0544  0.2852
                                         0.0480  0.1845 -0.0322  0.1695
  38. (0.00534) RY*( 3) C  1             s(  0.61%)p 8.67(  5.30%)d99.99( 94.09%)
                                         0.0000 -0.0088  0.0564 -0.0151 -0.0513
                                        -0.0267  0.0292  0.1107 -0.0363  0.1132
                                        -0.0430  0.0375 -0.0448 -0.1407 -0.1312
                                        -0.3406  0.4952  0.6178 -0.4252
  39. (0.00414) RY*( 4) C  1             s(  5.59%)p 6.65( 37.17%)d10.25( 57.24%)
                                         0.0000  0.0166  0.1892 -0.1402 -0.0111
                                         0.0026  0.0410 -0.1300 -0.0067  0.2829
                                        -0.3851 -0.0143  0.2002 -0.2906 -0.5629
                                        -0.0377 -0.3993 -0.1390 -0.2745
  40. (0.00306) RY*( 5) C  1             s( 11.80%)p 0.78(  9.22%)d 6.69( 78.98%)
                                         0.0000 -0.0103  0.2749  0.2042 -0.0251
                                         0.0308 -0.1915  0.0829 -0.0121 -0.0369
                                        -0.0013  0.0147 -0.2007  0.0755 -0.0588
                                        -0.4846  0.3036 -0.6569 -0.1669
  41. (0.00168) RY*( 6) C  1             s(  5.10%)p 9.27( 47.23%)d 9.35( 47.67%)
                                         0.0000 -0.0053  0.2021 -0.0785 -0.0626
                                        -0.0211  0.2916  0.2082 -0.0061  0.1406
                                         0.1645  0.0285 -0.4713 -0.2714  0.3790
                                         0.2576 -0.2219 -0.1027 -0.4549
  42. (0.00157) RY*( 7) C  1             s( 70.29%)p 0.32( 22.39%)d 0.10(  7.32%)
                                         0.0000 -0.0198  0.6822 -0.4696 -0.1287
                                         0.0122 -0.3116 -0.1489  0.0231 -0.2431
                                         0.1239  0.0076 -0.1401  0.0989 -0.0813
                                         0.1273  0.0149  0.1671  0.1490
  43. (0.00073) RY*( 8) C  1             s( 63.65%)p 0.43( 27.29%)d 0.14(  9.06%)
                                         0.0000 -0.0046  0.2497  0.6909 -0.3110
                                        -0.0008 -0.0475 -0.1847  0.0017 -0.1809
                                        -0.3420 -0.0017 -0.1848 -0.2296  0.0627
                                         0.1106 -0.0714  0.1983  0.1733
  44. (0.00015) RY*( 9) C  1             s(  8.79%)p 9.12( 80.16%)d 1.26( 11.05%)
                                         0.0000 -0.0025  0.0173  0.2665  0.1286
                                        -0.0087  0.0823 -0.6794 -0.0058  0.0989
                                         0.5102 -0.0066 -0.0781  0.2383 -0.1609
                                        -0.0124 -0.1058  0.0614 -0.2637
  45. (0.00007) RY*(10) C  1             s( 23.49%)p 2.38( 55.91%)d 0.88( 20.60%)
  46. (0.00003) RY*(11) C  1             s( 28.69%)p 2.10( 60.31%)d 0.38( 11.00%)
  47. (0.00001) RY*(12) C  1             s( 51.41%)p 0.89( 45.87%)d 0.05(  2.72%)
  48. (0.00000) RY*(13) C  1             s(  1.19%)p45.83( 54.56%)d37.16( 44.25%)
  49. (0.00001) RY*(14) C  1             s(  1.68%)p 0.67(  1.12%)d57.91( 97.20%)
  50. (0.00262) RY*( 1) O  2             s(  0.90%)p99.99( 97.14%)d 2.19(  1.97%)
                                         0.0000 -0.0026  0.0781  0.0526 -0.0097
                                        -0.0057  0.2129  0.0476  0.0046  0.2815
                                         0.0496  0.0076 -0.9157 -0.0585  0.0000
                                         0.0033 -0.1072 -0.0902 -0.0038
  51. (0.00225) RY*( 2) O  2             s( 26.67%)p 2.69( 71.76%)d 0.06(  1.57%)
                                         0.0000 -0.0013  0.5136 -0.0115  0.0527
                                         0.0042 -0.6430 -0.0703  0.0134 -0.4809
                                        -0.0145  0.0075 -0.2577 -0.0323 -0.0769
                                        -0.0776 -0.0213  0.0316 -0.0485
  52. (0.00088) RY*( 3) O  2             s( 67.31%)p 0.44( 29.29%)d 0.05(  3.40%)
                                         0.0000 -0.0021  0.7795 -0.2489  0.0600
                                         0.0156  0.4578 -0.0726  0.0039  0.1214
                                        -0.1082  0.0113  0.1860 -0.1291  0.0836
                                         0.0997  0.1156 -0.0516 -0.0321
  53. (0.00064) RY*( 4) O  2             s(  3.32%)p28.39( 94.33%)d 0.71(  2.35%)
                                         0.0000 -0.0037  0.1520  0.0577 -0.0823
                                        -0.0154 -0.5288  0.1262  0.0159  0.7675
                                        -0.2022  0.0001  0.1273 -0.0337  0.0108
                                        -0.0373  0.0823 -0.0949  0.0788
  54. (0.00040) RY*( 5) O  2             s( 54.22%)p 0.17(  8.98%)d 0.68( 36.80%)
                                         0.0000  0.0056  0.1767  0.7121 -0.0626
                                         0.0092  0.1198  0.0488  0.0080 -0.0712
                                         0.2171  0.0109  0.0795  0.1194  0.1662
                                        -0.3526  0.2344 -0.3971  0.0586
  55. (0.00018) RY*( 6) O  2             s(  6.77%)p13.18( 89.20%)d 0.60(  4.04%)
                                         0.0000  0.0059  0.0721  0.0075  0.2497
                                        -0.0086  0.0871  0.7990 -0.0108 -0.1265
                                        -0.3501 -0.0127  0.0038  0.3271 -0.0157
                                        -0.0718 -0.1721  0.0262  0.0684
  56. (0.00014) RY*( 7) O  2             s(  1.80%)p36.55( 65.91%)d17.90( 32.29%)
                                         0.0000 -0.0015  0.0144  0.0947  0.0941
                                        -0.0002  0.0151 -0.3882 -0.0009  0.0925
                                        -0.3244  0.0007 -0.0501  0.6260  0.2159
                                        -0.0656 -0.0327  0.1587 -0.4957
  57. (0.00007) RY*( 8) O  2             s( 26.03%)p 2.26( 58.79%)d 0.58( 15.19%)
  58. (0.00003) RY*( 9) O  2             s( 15.94%)p 1.43( 22.79%)d 3.84( 61.27%)
  59. (0.00003) RY*(10) O  2             s(  5.83%)p 1.08(  6.28%)d15.09( 87.90%)
  60. (0.00000) RY*(11) O  2             s(  4.37%)p 2.27(  9.92%)d19.61( 85.71%)
  61. (0.00000) RY*(12) O  2             s(  0.73%)p14.32( 10.47%)d99.99( 88.80%)
  62. (0.00000) RY*(13) O  2             s( 83.12%)p 0.10(  8.21%)d 0.10(  8.67%)
  63. (0.00000) RY*(14) O  2             s(  2.98%)p 9.22( 27.47%)d23.34( 69.55%)
  64. (0.00274) RY*( 1) O  3             s(  1.89%)p51.34( 97.19%)d 0.49(  0.92%)
                                         0.0000  0.0029  0.0655  0.1138 -0.0410
                                        -0.0047 -0.1577 -0.0360 -0.0070  0.7944
                                         0.0353 -0.0062  0.5593 -0.0184  0.0645
                                        -0.0009  0.0534 -0.0297  0.0364
  65. (0.00227) RY*( 2) O  3             s(  0.08%)p99.99( 98.97%)d11.57(  0.95%)
                                         0.0000  0.0004  0.0166  0.0213 -0.0094
                                         0.0060  0.6046 -0.0321  0.0040  0.5265
                                         0.0102 -0.0097 -0.5876  0.0204  0.0041
                                        -0.0365  0.0618  0.0556 -0.0349
  66. (0.00040) RY*( 3) O  3             s( 28.98%)p 2.12( 61.38%)d 0.33(  9.64%)
                                         0.0000  0.0007  0.4962  0.2078  0.0202
                                        -0.0113  0.3159 -0.5219 -0.0022 -0.1927
                                         0.3308 -0.0105  0.2032 -0.2313 -0.0047
                                        -0.2774 -0.0512 -0.1204 -0.0480
  67. (0.00019) RY*( 4) O  3             s( 44.89%)p 0.86( 38.49%)d 0.37( 16.62%)
                                         0.0000  0.0045  0.5518 -0.3464 -0.1562
                                        -0.0112 -0.4614 -0.0820  0.0134  0.1299
                                         0.1537 -0.0031 -0.3503 -0.0426  0.2296
                                         0.0968 -0.1124  0.2477  0.1734
  68. (0.00012) RY*( 5) O  3             s( 73.41%)p 0.28( 20.38%)d 0.08(  6.21%)
                                         0.0000  0.0026  0.3366  0.7873  0.0306
                                        -0.0052 -0.0808  0.3404  0.0088 -0.0661
                                        -0.1710 -0.0005 -0.1159  0.1851  0.2165
                                         0.0088  0.0146  0.0760  0.0958
  69. (0.00007) RY*( 6) O  3             s( 13.63%)p 3.11( 42.47%)d 3.22( 43.89%)
  70. (0.00006) RY*( 7) O  3             s(  0.25%)p99.99( 44.40%)d99.99( 55.35%)
  71. (0.00004) RY*( 8) O  3             s( 24.52%)p 1.85( 45.26%)d 1.23( 30.22%)
  72. (0.00000) RY*( 9) O  3             s( 97.78%)p 0.01(  0.78%)d 0.01(  1.44%)
  73. (0.00000) RY*(10) O  3             s(  2.85%)p12.65( 36.09%)d21.41( 61.06%)
  74. (0.00001) RY*(11) O  3             s(  4.51%)p 8.99( 40.59%)d12.16( 54.90%)
  75. (0.00000) RY*(12) O  3             s(  5.13%)p 2.45( 12.60%)d16.02( 82.27%)
  76. (0.00000) RY*(13) O  3             s(  1.74%)p23.78( 41.36%)d32.71( 56.90%)
  77. (0.00000) RY*(14) O  3             s(  0.33%)p63.73( 20.73%)d99.99( 78.94%)
  78. (0.01223) RY*( 1) C  4             s( 17.49%)p 4.67( 81.70%)d 0.05(  0.81%)
                                         0.0000 -0.0316  0.4125  0.0455 -0.0408
                                         0.0813  0.4172 -0.0338 -0.0452  0.2997
                                        -0.0069  0.0209  0.7367 -0.0110 -0.0256
                                         0.0617 -0.0312  0.0503  0.0097
  79. (0.00290) RY*( 2) C  4             s( 25.21%)p 2.89( 72.92%)d 0.07(  1.88%)
                                         0.0000  0.0028  0.4925 -0.0910  0.0341
                                         0.0367 -0.5912 -0.0222 -0.0200  0.5718
                                         0.1158  0.0227 -0.1865  0.0419  0.0103
                                         0.0905 -0.0456  0.0831  0.0385
  80. (0.00223) RY*( 3) C  4             s( 54.88%)p 0.81( 44.42%)d 0.01(  0.70%)
                                         0.0000  0.0059  0.6770  0.3000  0.0197
                                         0.0282  0.1158  0.2477 -0.0075 -0.5099
                                        -0.0454  0.0243 -0.2531  0.2049 -0.0516
                                         0.0340 -0.0221  0.0457 -0.0249
  81. (0.00049) RY*( 4) C  4             s( 15.83%)p 2.82( 44.61%)d 2.50( 39.55%)
                                         0.0000 -0.0021 -0.0416  0.3865  0.0848
                                        -0.0049 -0.4580 -0.1700  0.0131 -0.2034
                                         0.0417 -0.0133  0.3866  0.1206  0.3646
                                        -0.0727  0.2036 -0.1645 -0.4345
  82. (0.00038) RY*( 5) C  4             s( 28.44%)p 0.51( 14.38%)d 2.01( 57.18%)
                                         0.0000 -0.0038  0.0093  0.5305  0.0542
                                        -0.0193  0.1336 -0.1885  0.0060  0.2381
                                         0.0887  0.0036 -0.1573 -0.0270 -0.0708
                                        -0.2514  0.2923 -0.4573  0.4572
  83. (0.00032) RY*( 6) C  4             s( 12.79%)p 4.64( 59.31%)d 2.18( 27.91%)
                                         0.0000  0.0078  0.2348 -0.2313 -0.1384
                                         0.0072 -0.0901 -0.0480 -0.0014 -0.0768
                                        -0.4877  0.0035 -0.0148 -0.5819 -0.1903
                                        -0.1932  0.2578 -0.3012 -0.2198
  84. (0.00014) RY*( 7) C  4             s(  9.90%)p 5.30( 52.42%)d 3.81( 37.68%)
                                         0.0000 -0.0033  0.0045 -0.1494  0.2768
                                        -0.0011 -0.0647  0.5095  0.0033 -0.0625
                                         0.4326 -0.0059  0.1402 -0.2229 -0.0182
                                        -0.3561  0.4401  0.2183  0.0914
  85. (0.00008) RY*( 8) C  4             s( 35.28%)p 0.87( 30.79%)d 0.96( 33.94%)
  86. (0.00005) RY*( 9) C  4             s( 27.74%)p 1.46( 40.61%)d 1.14( 31.64%)
  87. (0.00003) RY*(10) C  4             s(  2.66%)p18.46( 49.07%)d18.16( 48.27%)
  88. (0.00001) RY*(11) C  4             s( 55.41%)p 0.35( 19.28%)d 0.46( 25.30%)
  89. (0.00001) RY*(12) C  4             s(  2.40%)p10.85( 26.07%)d29.75( 71.52%)
  90. (0.00000) RY*(13) C  4             s(  6.57%)p 3.70( 24.33%)d10.51( 69.09%)
  91. (0.00001) RY*(14) C  4             s(  4.81%)p 8.51( 40.95%)d11.28( 54.24%)
  92. (0.00435) RY*( 1) O  5             s( 19.51%)p 3.95( 76.96%)d 0.18(  3.53%)
                                         0.0000 -0.0063  0.4236  0.1228 -0.0223
                                        -0.0098 -0.1446 -0.0551  0.0067 -0.6361
                                         0.0118 -0.0086 -0.5830 -0.0282  0.1056
                                         0.0825 -0.1216  0.0451  0.0233
  93. (0.00106) RY*( 2) O  5             s( 40.75%)p 1.32( 53.80%)d 0.13(  5.45%)
                                         0.0000  0.0161  0.4443  0.4580  0.0103
                                        -0.0140 -0.1099 -0.1261  0.0202 -0.1807
                                         0.1954 -0.0039  0.6593 -0.0620 -0.0015
                                        -0.0172 -0.0410 -0.1864  0.1334
  94. (0.00084) RY*( 3) O  5             s( 19.65%)p 4.00( 78.62%)d 0.09(  1.73%)
                                         0.0000 -0.0067  0.1081  0.4031  0.1491
                                         0.0346  0.7846 -0.1655 -0.0074  0.2075
                                         0.1645 -0.0035 -0.2568  0.0764  0.0822
                                        -0.0662  0.0409 -0.0669 -0.0041
  95. (0.00067) RY*( 4) O  5             s( 77.88%)p 0.18( 13.70%)d 0.11(  8.42%)
                                         0.0000 -0.0023 -0.5922  0.6457 -0.1061
                                        -0.0010 -0.2589  0.0150 -0.0180 -0.1141
                                         0.1864 -0.0002 -0.0896  0.1167  0.0450
                                         0.1575  0.1383  0.1933 -0.0299
  96. (0.00019) RY*( 5) O  5             s( 22.72%)p 3.28( 74.57%)d 0.12(  2.71%)
                                         0.0000  0.0022  0.3662  0.2935 -0.0831
                                        -0.0172 -0.4178  0.0749 -0.0124  0.6807
                                        -0.1359  0.0252 -0.2869  0.0159  0.0553
                                         0.0521 -0.1087 -0.0687 -0.0695
  97. (0.00009) RY*( 6) O  5             s(  8.14%)p 9.93( 80.82%)d 1.36( 11.04%)
  98. (0.00004) RY*( 7) O  5             s(  8.14%)p 9.05( 73.67%)d 2.23( 18.19%)
  99. (0.00001) RY*( 8) O  5             s( 86.54%)p 0.15( 13.36%)d 0.00(  0.10%)
 100. (0.00001) RY*( 9) O  5             s(  4.87%)p19.28( 93.95%)d 0.24(  1.18%)
 101. (0.00001) RY*(10) O  5             s(  0.26%)p53.21( 13.98%)d99.99( 85.76%)
 102. (0.00001) RY*(11) O  5             s(  1.38%)p 2.16(  2.98%)d69.34( 95.64%)
 103. (0.00000) RY*(12) O  5             s(  3.65%)p 0.35(  1.29%)d26.04( 95.06%)
 104. (0.00001) RY*(13) O  5             s(  4.85%)p 3.35( 16.26%)d16.27( 78.90%)
 105. (0.00001) RY*(14) O  5             s(  1.69%)p 3.84(  6.47%)d54.45( 91.84%)
 106. (0.00688) RY*( 1) C  6             s( 53.40%)p 0.86( 45.96%)d 0.01(  0.64%)
                                         0.0000 -0.0480  0.7150  0.1369 -0.0411
                                        -0.0664  0.4803  0.1308 -0.0377 -0.3502
                                        -0.0019 -0.0789  0.2216  0.1672  0.0168
                                         0.0517  0.0527 -0.0009  0.0264
 107. (0.00089) RY*( 2) C  6             s( 20.34%)p 3.48( 70.77%)d 0.44(  8.90%)
                                         0.0000  0.0114  0.4459  0.0338  0.0567
                                        -0.0046 -0.2723  0.2248 -0.0215  0.1497
                                        -0.2710 -0.0184 -0.6967 -0.0295 -0.2345
                                        -0.0606  0.0140  0.0730 -0.1574
 108. (0.00076) RY*( 3) C  6             s( 13.15%)p 6.43( 84.55%)d 0.18(  2.30%)
                                         0.0000 -0.0206  0.3496  0.0866  0.0367
                                        -0.0113 -0.1291 -0.0203 -0.0036  0.7895
                                        -0.0868 -0.0053  0.4245 -0.1311  0.1150
                                        -0.0019  0.0458 -0.0443  0.0758
 109. (0.00030) RY*( 4) C  6             s( 17.71%)p 4.57( 81.00%)d 0.07(  1.28%)
                                         0.0000 -0.0047 -0.2227  0.3541  0.0468
                                        -0.0047  0.6345 -0.3001  0.0109  0.3600
                                        -0.1663  0.0167 -0.3053  0.2579 -0.0690
                                         0.0599 -0.0314 -0.0004 -0.0592
 110. (0.00021) RY*( 5) C  6             s( 35.75%)p 1.68( 60.09%)d 0.12(  4.16%)
                                         0.0000  0.0142  0.1954  0.5649  0.0061
                                        -0.0129 -0.3513 -0.5253  0.0174 -0.1280
                                         0.4269 -0.0059 -0.0481 -0.0115 -0.0749
                                         0.0062 -0.1620 -0.0838 -0.0513
 111. (0.00012) RY*( 6) C  6             s( 39.82%)p 1.05( 41.64%)d 0.47( 18.55%)
                                         0.0000 -0.0072 -0.2383  0.5810  0.0611
                                         0.0107 -0.1082  0.4642  0.0225 -0.0961
                                        -0.2704  0.0288  0.3221 -0.0402 -0.3486
                                         0.0866 -0.0698  0.0811 -0.2121
 112. (0.00008) RY*( 7) C  6             s(  4.66%)p17.09( 79.61%)d 3.38( 15.73%)
 113. (0.00004) RY*( 8) C  6             s(  1.78%)p40.99( 72.91%)d14.23( 25.31%)
 114. (0.00001) RY*( 9) C  6             s( 96.39%)p 0.02(  2.13%)d 0.02(  1.49%)
 115. (0.00002) RY*(10) C  6             s( 13.57%)p 3.42( 46.46%)d 2.95( 39.97%)
 116. (0.00001) RY*(11) C  6             s(  0.76%)p 4.41(  3.36%)d99.99( 95.88%)
 117. (0.00000) RY*(12) C  6             s(  1.46%)p 2.10(  3.06%)d65.60( 95.48%)
 118. (0.00001) RY*(13) C  6             s(  0.13%)p66.42(  8.83%)d99.99( 91.04%)
 119. (0.00000) RY*(14) C  6             s(  0.16%)p 6.91(  1.10%)d99.99( 98.74%)
 120. (0.00277) RY*( 1) O  7             s( 48.75%)p 0.73( 35.36%)d 0.33( 15.89%)
                                         0.0000  0.0278  0.6797 -0.1567 -0.0111
                                        -0.0361 -0.2689 -0.0261 -0.0257 -0.2572
                                         0.0117 -0.0683 -0.4443 -0.1018 -0.1160
                                        -0.2593 -0.2048 -0.0270 -0.1884
 121. (0.00073) RY*( 2) O  7             s( 16.94%)p 4.73( 80.11%)d 0.17(  2.95%)
                                         0.0000  0.0009  0.3897 -0.1323  0.0008
                                        -0.0121  0.3216 -0.0412  0.0033  0.7912
                                        -0.2618 -0.0201  0.0164  0.0252  0.0515
                                        -0.0711  0.0669 -0.1134 -0.0670
 122. (0.00021) RY*( 3) O  7             s(  2.02%)p46.39( 93.63%)d 2.16(  4.35%)
                                         0.0000 -0.0035  0.1282 -0.0536 -0.0295
                                         0.0074  0.8315 -0.2219 -0.0053 -0.3345
                                         0.1567  0.0019 -0.2046  0.1315  0.0590
                                         0.0744 -0.0169  0.1645  0.0846
 123. (0.00004) RY*( 4) O  7             s( 30.15%)p 1.50( 45.11%)d 0.82( 24.74%)
 124. (0.00002) RY*( 5) O  7             s( 12.90%)p 4.78( 61.61%)d 1.98( 25.50%)
 125. (0.00000) RY*( 6) O  7             s( 94.11%)p 0.06(  5.37%)d 0.01(  0.52%)
 126. (0.00001) RY*( 7) O  7             s(  1.32%)p74.16( 98.15%)d 0.40(  0.53%)
 127. (0.00000) RY*( 8) O  7             s( 89.65%)p 0.07(  6.34%)d 0.04(  4.00%)
 128. (0.00001) RY*( 9) O  7             s(  0.34%)p99.99( 99.48%)d 0.53(  0.18%)
 129. (0.00000) RY*(10) O  7             s(  0.91%)p 5.76(  5.24%)d99.99( 93.85%)
 130. (0.00000) RY*(11) O  7             s(  1.47%)p23.13( 34.04%)d43.83( 64.49%)
 131. (0.00000) RY*(12) O  7             s(  0.77%)p28.55( 22.06%)d99.88( 77.17%)
 132. (0.00000) RY*(13) O  7             s(  0.06%)p66.81(  4.18%)d99.99( 95.75%)
 133. (0.00000) RY*(14) O  7             s(  0.31%)p35.72( 11.13%)d99.99( 88.56%)
 134. (0.00865) RY*( 1) C  8             s( 27.06%)p 2.65( 71.82%)d 0.04(  1.11%)
                                         0.0000  0.0810  0.5093  0.0196  0.0655
                                         0.0734  0.5737  0.0984  0.0455 -0.1933
                                        -0.2982  0.1057  0.4620 -0.1453  0.0006
                                        -0.0808  0.0239 -0.0523 -0.0360
 135. (0.00811) RY*( 2) C  8             s( 19.32%)p 4.10( 79.20%)d 0.08(  1.48%)
                                         0.0000  0.0605  0.4148  0.1309  0.0189
                                         0.0356 -0.2806 -0.3820  0.0508  0.6554
                                         0.1684  0.0749  0.2740 -0.1579 -0.0318
                                         0.0276 -0.0918  0.0631 -0.0244
 136. (0.00042) RY*( 3) C  8             s( 26.34%)p 2.76( 72.79%)d 0.03(  0.87%)
                                         0.0000  0.0045  0.2558  0.3802 -0.2312
                                         0.0199  0.3004  0.5008  0.0197  0.3083
                                         0.2420  0.0086 -0.4779 -0.0622 -0.0029
                                        -0.0047 -0.0030  0.0274  0.0889
 137. (0.00007) RY*( 4) C  8             s( 22.17%)p 3.40( 75.39%)d 0.11(  2.44%)
 138. (0.00003) RY*( 5) C  8             s(  4.92%)p18.44( 90.70%)d 0.89(  4.38%)
 139. (0.00003) RY*( 6) C  8             s( 10.39%)p 8.39( 87.14%)d 0.24(  2.47%)
 140. (0.00003) RY*( 7) C  8             s( 18.28%)p 4.25( 77.61%)d 0.22(  4.11%)
 141. (0.00000) RY*( 8) C  8             s( 73.62%)p 0.36( 26.37%)d 0.00(  0.01%)
 142. (0.00000) RY*( 9) C  8             s( 93.98%)p 0.06(  6.01%)d 0.00(  0.00%)
 143. (0.00000) RY*(10) C  8             s(  0.23%)p 6.73(  1.56%)d99.99( 98.21%)
 144. (0.00000) RY*(11) C  8             s(  0.59%)p 8.99(  5.29%)d99.99( 94.12%)
 145. (0.00000) RY*(12) C  8             s(  0.21%)p16.18(  3.37%)d99.99( 96.42%)
 146. (0.00000) RY*(13) C  8             s(  0.03%)p48.16(  1.67%)d99.99( 98.29%)
 147. (0.00000) RY*(14) C  8             s(  0.20%)p25.31(  5.17%)d99.99( 94.62%)
 148. (0.00039) RY*( 1) H  9             s(100.00%)
                                         0.0000  1.0000
 149. (0.00042) RY*( 1) H 10             s(100.00%)
                                         0.0000  1.0000
 150. (0.00032) RY*( 1) H 11             s(100.00%)
                                         0.0000  1.0000
 151. (0.00053) RY*( 1) C 12             s(  8.99%)p10.12( 91.00%)d 0.00(  0.01%)
                                         0.0000 -0.0197  0.2353 -0.1840  0.0174
                                         0.0095  0.3195 -0.1977  0.1051 -0.7688
                                         0.3562  0.0353 -0.1958 -0.0090 -0.0102
                                         0.0017  0.0002 -0.0048 -0.0015
 152. (0.00035) RY*( 2) C 12             s(  5.75%)p16.33( 93.91%)d 0.06(  0.34%)
                                         0.0000 -0.0638  0.1777  0.1470 -0.0157
                                         0.1181  0.8215 -0.2367 -0.0320  0.3366
                                        -0.2186  0.0479 -0.0702  0.1582  0.0155
                                        -0.0170  0.0277 -0.0196  0.0412
 153. (0.00017) RY*( 3) C 12             s( 65.07%)p 0.53( 34.55%)d 0.01(  0.38%)
                                         0.0000  0.0137  0.7067 -0.3879 -0.0267
                                        -0.0714 -0.1733  0.2672 -0.0217  0.1316
                                        -0.2723  0.0357 -0.3700  0.0944  0.0330
                                         0.0168 -0.0444  0.0199  0.0056
 154. (0.00011) RY*( 4) C 12             s( 22.41%)p 3.44( 77.16%)d 0.02(  0.43%)
                                         0.0000 -0.0221  0.4629 -0.0958 -0.0149
                                         0.0381  0.0744  0.0455 -0.0027  0.0538
                                         0.1525 -0.0952  0.7880 -0.3263  0.0027
                                        -0.0028 -0.0068 -0.0608  0.0233
 155. (0.00001) RY*( 5) C 12             s(  3.26%)p29.71( 96.74%)d 0.00(  0.00%)
 156. (0.00001) RY*( 6) C 12             s( 88.16%)p 0.07(  6.37%)d 0.06(  5.47%)
 157. (0.00000) RY*( 7) C 12             s(  1.13%)p87.21( 98.87%)d 0.00(  0.00%)
 158. (0.00000) RY*( 8) C 12             s( 99.93%)p 0.00(  0.07%)d 0.00(  0.00%)
 159. (0.00000) RY*( 9) C 12             s(  0.44%)p99.99( 99.56%)d 0.00(  0.00%)
 160. (0.00000) RY*(10) C 12             s(  1.77%)p 0.13(  0.22%)d55.45( 98.01%)
 161. (0.00000) RY*(11) C 12             s(  0.85%)p 0.35(  0.30%)d99.99( 98.85%)
 162. (0.00000) RY*(12) C 12             s(  1.14%)p 0.12(  0.14%)d86.33( 98.72%)
 163. (0.00000) RY*(13) C 12             s(  0.06%)p 7.80(  0.45%)d99.99( 99.49%)
 164. (0.00000) RY*(14) C 12             s(  1.45%)p 0.43(  0.62%)d67.68( 97.93%)
 165. (0.00936) RY*( 1) H 13             s(100.00%)
                                         0.0750  0.9972
 166. (0.00465) RY*( 1) H 14             s(100.00%)
                                        -0.0374  0.9993
 167. (0.00388) RY*( 1) H 15             s(100.00%)
                                         0.0162  0.9999
 168. (0.09573) BD*( 1) C  1- O  2       
               ( 66.71%)   0.8167* C  1 s( 31.58%)p 2.16( 68.22%)d 0.01(  0.20%)
                                        -0.0004  0.5619 -0.0114  0.0045 -0.0010
                                        -0.4031  0.0089  0.0064  0.6964 -0.0548
[...]
 C          0.040 -0.097 -0.040   -0.015  0.007  0.003   -0.006  0.019  0.002
 H          0.051  0.122  0.570    0.098  0.072  0.116   -0.311 -0.127 -0.189
 H         -0.013 -0.531 -0.159    0.202 -0.081 -0.052   -0.457 -0.116 -0.167
 H          0.085  0.426 -0.370   -0.219  0.156 -0.091    0.725 -0.180 -0.190
 C          0.044  0.008  0.025    0.028  0.010 -0.084   -0.018  0.004  0.020
 H         -0.008  0.000  0.005    0.046  0.107 -0.096    0.000  0.011  0.011
 H          0.010 -0.005  0.022    0.045 -0.050  0.218    0.005 -0.007  0.053
 H          0.010  0.010  0.022    0.001 -0.118  0.423   -0.001 -0.034  0.005
 TransDip  -0.029  0.008 -0.017    0.032  0.035  0.050    0.030 -0.252 -0.206

 Mode:                13                     14                     15
 Frequency:       197.73                 204.88                 253.16
 Force Cnst:      0.0679                 0.0357                 0.2437
 Red. Mass:       2.9470                 1.4456                 6.4525
 IR Active:          YES                    YES                    YES
 IR Intens:       41.467                 64.162                  1.320
 Raman Active:       YES                    YES                    YES
               X      Y      Z        X      Y      Z        X      Y      Z
 C          0.053 -0.056 -0.009    0.026 -0.026 -0.006   -0.087 -0.064  0.081
 O         -0.048 -0.080 -0.130   -0.021 -0.037 -0.064    0.082  0.093 -0.042
 O          0.054  0.050  0.102    0.022  0.021  0.052    0.066  0.070 -0.093
 C          0.114 -0.125 -0.034    0.057 -0.056 -0.021   -0.324 -0.293  0.328
 O         -0.154  0.173  0.047   -0.069  0.064  0.034   -0.041  0.030  0.046
 C          0.050 -0.015  0.001    0.018 -0.007  0.006    0.233  0.092 -0.247
 O          0.021 -0.028  0.001   -0.021  0.026  0.000    0.001 -0.003 -0.004
 C         -0.013  0.038  0.007    0.014 -0.038 -0.008    0.002 -0.004 -0.006
 H         -0.631 -0.105  0.192    0.680  0.126 -0.200    0.052  0.007 -0.011
 H          0.529 -0.234  0.072   -0.564  0.257 -0.084   -0.038  0.016 -0.002
 H          0.036 -0.094  0.058   -0.071  0.123 -0.071    0.001  0.006 -0.002
 C         -0.013  0.033 -0.030    0.009 -0.028  0.022    0.003 -0.004  0.006
 H          0.055  0.048  0.063    0.015  0.016  0.039    0.429  0.244 -0.509
 H         -0.127  0.084  0.009   -0.072  0.033  0.034   -0.044  0.021  0.043
 H         -0.138 -0.039  0.078   -0.074  0.133  0.024   -0.046 -0.062  0.039
 TransDip   0.017 -0.160  0.129   -0.002  0.235 -0.103   -0.003 -0.033  0.016

 Mode:                16                     17                     18
 Frequency:       263.85                 401.57                 518.70
 Force Cnst:      0.2554                 0.0988                 0.1785
 Red. Mass:       6.2261                 1.0403                 1.1259
 IR Active:          YES                    YES                    YES
 IR Intens:        3.221                 39.804                121.689
 Raman Active:       YES                    YES                    YES
               X      Y      Z        X      Y      Z        X      Y      Z
 C          0.042 -0.089  0.011    0.001 -0.005 -0.001    0.011 -0.005  0.011
 O         -0.025 -0.071 -0.150    0.001 -0.004 -0.009    0.021 -0.012  0.029
 O          0.081  0.079  0.106    0.004  0.004  0.008    0.013  0.022  0.035
 C         -0.021 -0.176  0.029   -0.002 -0.010  0.000   -0.023 -0.007 -0.030
 O          0.108 -0.175 -0.089    0.012 -0.038  0.004   -0.044  0.000 -0.014
 C         -0.244  0.466  0.128    0.007  0.004 -0.009   -0.029  0.017 -0.023
 O          0.001 -0.002 -0.001    0.001  0.000 -0.003    0.000  0.000 -0.001
 C          0.000  0.000 -0.001   -0.001 -0.001  0.004   -0.001  0.000 -0.002
 H         -0.009 -0.002  0.012   -0.114 -0.033  0.019   -0.003 -0.006 -0.021
 H          0.025 -0.004  0.012    0.030 -0.036  0.008   -0.026 -0.010 -0.013
 H         -0.009 -0.004  0.012   -0.011 -0.031  0.023    0.044 -0.009 -0.017
 C          0.000 -0.001  0.005   -0.010 -0.008  0.003    0.001 -0.002 -0.003
 H         -0.194  0.618  0.226   -0.013 -0.041 -0.015   -0.071 -0.260 -0.253
 H          0.118 -0.157 -0.088   -0.063 -0.005  0.089    0.380 -0.028 -0.486
 H          0.109 -0.154 -0.088   -0.032  0.979 -0.079    0.329  0.115  0.589
 TransDip  -0.054  0.005 -0.019   -0.163  0.118  0.013    0.329 -0.079 -0.102

 Mode:                19                     20                     21
 Frequency:       542.81                 570.76                 645.46
 Force Cnst:      1.0853                 1.2291                 0.2908
 Red. Mass:       6.2519                 6.4037                 1.1846
 IR Active:          YES                    YES                    YES
 IR Intens:        6.338                 97.303                166.639
 Raman Active:       YES                    YES                    YES
               X      Y      Z        X      Y      Z        X      Y      Z
 C          0.105 -0.081  0.004    0.104 -0.096  0.005   -0.012  0.000 -0.016
 O          0.163 -0.099  0.047   -0.144 -0.115 -0.253    0.024  0.002  0.043
 O          0.104  0.161  0.278    0.115 -0.097  0.018   -0.019  0.024  0.009
 C         -0.276  0.144 -0.162   -0.200  0.428  0.256   -0.005 -0.041 -0.022
 O          0.044  0.004  0.013   -0.010 -0.018 -0.013   -0.009 -0.030 -0.009
 C         -0.187 -0.127 -0.272    0.113 -0.053  0.030    0.017 -0.036 -0.076
 O          0.000  0.000  0.001    0.000  0.000  0.000    0.000  0.000  0.000
 C          0.000  0.000  0.001    0.000 -0.001  0.001    0.000  0.000  0.001
 H          0.010  0.007  0.014   -0.001 -0.003 -0.013   -0.014 -0.004 -0.004
 H          0.020  0.009  0.011   -0.011 -0.007 -0.010   -0.017 -0.001 -0.008
 H         -0.025  0.007  0.010    0.017 -0.003 -0.012   -0.009  0.002 -0.001
 C          0.000  0.002  0.003   -0.001 -0.001 -0.006    0.001 -0.001 -0.002
 H         -0.157 -0.036 -0.256    0.046  0.248  0.509   -0.112  0.356  0.655
 H         -0.280 -0.111  0.352    0.209  0.046 -0.251    0.115  0.604 -0.094
 H         -0.233 -0.168 -0.435    0.177  0.067  0.291    0.083  0.031  0.145
 TransDip  -0.078 -0.015  0.013    0.194  0.089  0.233   -0.010  0.308  0.276

 Mode:                22                     23                     24
 Frequency:       735.00                 746.72                 765.06
 Force Cnst:      0.4731                 0.4284                 0.4185
 Red. Mass:       1.4864                 1.3039                 1.2136
 IR Active:          YES                    YES                    YES
 IR Intens:       27.876                 59.010                666.709
 Raman Active:       YES                    YES                    YES
               X      Y      Z        X      Y      Z        X      Y      Z
 C         -0.085 -0.099  0.078    0.068  0.056 -0.067    0.007  0.007 -0.004
 O          0.012  0.006 -0.031   -0.032 -0.032 -0.007    0.000  0.001  0.004
 O          0.033  0.025 -0.022   -0.005 -0.028  0.022   -0.002 -0.001  0.001
 C          0.040  0.058 -0.039   -0.033 -0.019  0.042   -0.001 -0.005  0.000
 O          0.001 -0.030  0.006    0.014 -0.020  0.008   -0.002  0.001 -0.001
 C         -0.048 -0.034  0.068    0.026  0.072  0.006    0.000 -0.004 -0.004
 O          0.000 -0.001 -0.002    0.000  0.001  0.000   -0.004 -0.001 -0.004
 C          0.001  0.000  0.000    0.000  0.001  0.000    0.003  0.000  0.006
 H          0.030  0.006 -0.001    0.029  0.008  0.001    0.553  0.137 -0.033
 H          0.032 -0.006  0.010    0.031 -0.002  0.009    0.560 -0.069  0.146
 H          0.032 -0.010 -0.004    0.026 -0.006 -0.004    0.525 -0.129 -0.125
 C         -0.008 -0.001  0.002   -0.006  0.001  0.001   -0.136  0.004  0.001
 H          0.376  0.235 -0.547   -0.253 -0.633 -0.170    0.006  0.045  0.038
 H          0.016  0.676  0.039   -0.052  0.659  0.128    0.000 -0.047 -0.006
 H         -0.004  0.002 -0.004   -0.066 -0.079 -0.123    0.003  0.041  0.002
 TransDip   0.010  0.113 -0.126   -0.148  0.028 -0.195    0.510 -0.650 -0.037

 Mode:                25                     26                     27
 Frequency:       796.62                 844.97                1313.95
 Force Cnst:      0.8629                 5.2293                14.0042
 Red. Mass:       2.3078                12.4312                13.7675
 IR Active:          YES                    YES                    YES
 IR Intens:       62.143                 96.809                290.140
 Raman Active:       YES                    YES                    YES
               X      Y      Z        X      Y      Z        X      Y      Z
 C          0.166  0.171 -0.178    0.231  0.276  0.488    0.186  0.384  0.582
 O         -0.040 -0.051  0.051   -0.320  0.264 -0.040    0.229 -0.425 -0.207
 O         -0.048 -0.036  0.043    0.320 -0.323 -0.007   -0.355  0.140 -0.213
 C         -0.044 -0.045  0.046   -0.040 -0.141 -0.194    0.006  0.007  0.014
 O         -0.008 -0.009 -0.001    0.008 -0.013  0.004    0.008 -0.008  0.004
 C         -0.045 -0.057  0.042   -0.187 -0.070 -0.230   -0.029 -0.009 -0.037
 O          0.000 -0.001 -0.001    0.000  0.000 -0.001   -0.001 -0.001 -0.001
 C          0.001 -0.001 -0.001    0.000  0.000  0.001    0.001  0.001  0.002
 H         -0.031 -0.009  0.001   -0.015 -0.005  0.000   -0.002 -0.003 -0.005
 H         -0.031  0.001 -0.007   -0.015  0.001 -0.005   -0.002 -0.003 -0.002
 H         -0.026  0.004  0.008   -0.015  0.003  0.003   -0.004  0.003  0.001
 C          0.007 -0.002  0.001    0.003 -0.001 -0.001    0.000  0.000  0.000
 H          0.527  0.648 -0.410   -0.139  0.202 -0.061   -0.028  0.007 -0.013
 H          0.040  0.065 -0.048    0.001  0.184  0.011   -0.016  0.084 -0.019
 H          0.038  0.051  0.073   -0.005  0.010 -0.017   -0.004  0.000 -0.016
 TransDip   0.165  0.165 -0.097    0.131  0.126  0.257    0.160  0.248  0.459

 Mode:                28                     29                     30
 Frequency:      1453.85                1459.52                1681.62
 Force Cnst:      1.3488                 1.3590                12.7349
 Red. Mass:       1.0831                 1.0828                 7.6434
 IR Active:          YES                    YES                    YES
 IR Intens:        0.941                  0.016                771.458
 Raman Active:       YES                    YES                    YES
               X      Y      Z        X      Y      Z        X      Y      Z
 C          0.000  0.000  0.000    0.000  0.000  0.000    0.492 -0.403  0.076
 O          0.000  0.000  0.000    0.000  0.000  0.000   -0.116  0.178  0.070
 O          0.000  0.000  0.000    0.000  0.000  0.000   -0.243  0.127 -0.114
 C          0.000  0.000  0.000    0.000  0.000  0.000    0.021  0.002  0.021
 O          0.000  0.000 -0.001    0.000  0.000  0.001   -0.009 -0.001  0.042
 C          0.000  0.000  0.000    0.000  0.000  0.000   -0.028 -0.005 -0.030
 O          0.000  0.000  0.000    0.000  0.000  0.000    0.001  0.001  0.001
 C          0.000  0.000  0.000    0.000  0.000  0.000   -0.002 -0.001 -0.002
 H         -0.195 -0.180 -0.408   -0.112  0.069  0.637   -0.005 -0.001 -0.008
 H          0.215  0.275  0.201   -0.069  0.688  0.166    0.002 -0.005  0.000
 H         -0.003  0.578 -0.510    0.212 -0.041 -0.133   -0.008  0.004 -0.002
 C         -0.002 -0.057  0.060   -0.003 -0.060 -0.057    0.002  0.000  0.001
 H          0.000  0.000  0.000    0.000  0.001 -0.001   -0.043 -0.023 -0.068
 H         -0.005  0.001  0.005    0.011  0.001 -0.012    0.344  0.025 -0.329
 H          0.002  0.003  0.003   -0.004  0.004 -0.005   -0.241  0.018 -0.393
 TransDip  -0.008  0.024 -0.018    0.000 -0.004 -0.001    0.764 -0.438  0.125

 Mode:                31                     32                     33
 Frequency:      1703.68                2097.22                2101.25
 Force Cnst:      1.9498                18.6710                32.2460
 Red. Mass:       1.1402                 7.2049                12.3957
 IR Active:          YES                    YES                    YES
 IR Intens:       92.792                108.098               1991.099
 Raman Active:       YES                    YES                    YES
               X      Y      Z        X      Y      Z        X      Y      Z
 C          0.050 -0.040  0.008   -0.054  0.004 -0.052    0.023 -0.006  0.019
 O         -0.011  0.018  0.004    0.008 -0.010 -0.002   -0.004  0.006  0.002
 O         -0.024  0.012 -0.011    0.003 -0.005 -0.002   -0.002  0.003  0.001
 C          0.002  0.000  0.001    0.375  0.066  0.413   -0.145 -0.025 -0.160
 O          0.009  0.001 -0.066    0.002  0.000  0.000    0.001  0.003 -0.001
 C         -0.003  0.001 -0.003   -0.291 -0.061 -0.326    0.113  0.025  0.126
 O          0.000  0.000  0.001   -0.080 -0.032 -0.090   -0.355 -0.143 -0.399
 C         -0.001  0.000 -0.001    0.106  0.043  0.120    0.471  0.189  0.533
 H          0.000  0.003  0.012   -0.006 -0.014  0.003   -0.028 -0.058  0.014
 H         -0.007  0.008  0.002   -0.007  0.004 -0.009   -0.035  0.017 -0.035
 H          0.009 -0.005  0.000   -0.011  0.008  0.007   -0.049  0.033  0.028
 C          0.000 -0.001 -0.002    0.002  0.001  0.000    0.010  0.002 -0.001
 H         -0.002 -0.010 -0.007   -0.541  0.136 -0.360    0.201 -0.063  0.132
 H         -0.501 -0.003  0.547   -0.011  0.006  0.005    0.000 -0.015 -0.005
 H          0.349 -0.022  0.563    0.000 -0.010  0.010   -0.007 -0.033  0.019
 TransDip   0.116 -0.066  0.278    0.026 -0.305  0.130    0.269 -1.403  0.038

 Mode:                34                     35                     36
 Frequency:      2963.58                3059.14                3067.55
 Force Cnst:      5.2810                 6.0886                 6.1215
 Red. Mass:       1.0206                 1.1043                 1.1041
 IR Active:          YES                    YES                    YES
 IR Intens:      259.537                108.897                 49.360
 Raman Active:       YES                    YES                    YES
               X      Y      Z        X      Y      Z        X      Y      Z
 C          0.000  0.000  0.000    0.000  0.000  0.000    0.000  0.000  0.000
 O          0.000  0.000  0.000    0.000  0.000  0.000    0.000  0.000  0.000
 O          0.000  0.000  0.000    0.000  0.000  0.000    0.000  0.000  0.000
 C          0.000  0.000  0.000    0.000  0.000  0.000    0.000  0.000  0.000
 O          0.000  0.000  0.000    0.000  0.000  0.000    0.000  0.000  0.000
 C          0.000  0.000  0.000    0.000  0.000  0.000    0.000  0.000  0.000
 O         -0.002 -0.001 -0.002    0.000  0.000  0.000   -0.001  0.000 -0.001
 C          0.003  0.001  0.003    0.000  0.000  0.000    0.001  0.000  0.001
 H         -0.103  0.519 -0.106   -0.027  0.087 -0.049   -0.222  0.788 -0.157
 H         -0.131 -0.166  0.542   -0.199 -0.205  0.607    0.134  0.103 -0.419
 H         -0.166 -0.389 -0.435    0.250  0.465  0.502    0.105  0.169  0.229
 C          0.033  0.003  0.000   -0.002 -0.029 -0.089   -0.001 -0.089  0.029
 H          0.002 -0.001  0.002    0.003 -0.002  0.001    0.001  0.000  0.001
 H          0.002  0.000  0.002    0.002  0.000  0.001    0.000  0.000  0.001
 H          0.001  0.001 -0.002   -0.001  0.000 -0.003    0.004 -0.002 -0.002
 TransDip   0.293  0.424  0.030    0.003 -0.069 -0.327    0.014 -0.193  0.115

 Mode:                37                     38                     39
 Frequency:      3197.79                3490.59                3694.41
 Force Cnst:      6.8120                 7.5836                 8.6436
 Red. Mass:       1.1306                 1.0564                 1.0749
 IR Active:          YES                    YES                    YES
 IR Intens:       92.939                250.373                442.990
 Raman Active:       YES                    YES                    YES
               X      Y      Z        X      Y      Z        X      Y      Z
 C         -0.001  0.000 -0.002   -0.001  0.003  0.002   -0.001  0.001  0.000
 O          0.000  0.001  0.000    0.001 -0.002 -0.001    0.001 -0.001  0.000
 O          0.000  0.000  0.000    0.001 -0.001  0.000    0.000  0.000  0.000
 C          0.017  0.004  0.019    0.000  0.001  0.001    0.000  0.000  0.000
 O          0.000  0.000  0.002   -0.031  0.003 -0.047   -0.064  0.001  0.019
 C         -0.084  0.032 -0.049   -0.003  0.001 -0.002    0.000  0.000  0.000
 O          0.000  0.000  0.000    0.000  0.000  0.000   -0.001  0.000 -0.001
 C          0.000  0.000  0.000    0.000  0.000  0.000    0.001  0.000  0.001
 H          0.000 -0.003  0.001    0.000 -0.001  0.000   -0.001 -0.006  0.001
 H          0.001  0.001 -0.004    0.001  0.001 -0.003   -0.001  0.001 -0.001
 H         -0.001 -0.001 -0.001    0.000  0.000  0.000    0.000  0.000  0.000
 C          0.000  0.000  0.000    0.000  0.000  0.000    0.001  0.000  0.000
 H          0.817 -0.430  0.368    0.026 -0.015  0.008   -0.003  0.002  0.000
 H         -0.021 -0.002 -0.024    0.728 -0.047  0.623    0.177 -0.013  0.190
 H          0.010  0.000 -0.007   -0.248  0.003  0.121    0.830 -0.006 -0.489
 TransDip   0.284 -0.081  0.090    0.419 -0.188  0.214    0.660  0.125 -0.052

 STANDARD THERMODYNAMIC QUANTITIES AT   298.15 K  AND     1.00 ATM

   This Molecule has  6 Imaginary Frequencies
   Zero point vibrational energy:       56.022 kcal/mol

   Atom    1 Element C  Has Mass   12.00000
   Atom    2 Element O  Has Mass   15.99491
   Atom    3 Element O  Has Mass   15.99491
   Atom    4 Element C  Has Mass   12.00000
   Atom    5 Element O  Has Mass   15.99491
   Atom    6 Element C  Has Mass   12.00000
   Atom    7 Element O  Has Mass   15.99491
   Atom    8 Element C  Has Mass   12.00000
   Atom    9 Element H  Has Mass    1.00783
   Atom   10 Element H  Has Mass    1.00783
   Atom   11 Element H  Has Mass    1.00783
   Atom   12 Element C  Has Mass   12.00000
   Atom   13 Element H  Has Mass    1.00783
   Atom   14 Element H  Has Mass    1.00783
   Atom   15 Element H  Has Mass    1.00783
   Molecular Mass:   130.026620 amu
   Principal axes and moments of inertia in amu*Bohr^2:
                             1           2           3
    Eigenvalues --     1389.87722  4454.32505  5146.37105
          X               0.99936    -0.03541    -0.00516
          Y               0.03547     0.99931     0.01120
          Z               0.00476    -0.01137     0.99992
   Rotational Symmetry Number is   1
   The Molecule is an Asymmetric Top
   Translational Enthalpy:        0.889 kcal/mol
   Rotational Enthalpy:           0.889 kcal/mol
   Vibrational Enthalpy:         61.251 kcal/mol
   gas constant (RT):             0.592 kcal/mol
   Translational Entropy:        40.501  cal/mol.K
   Rotational Entropy:           31.833  cal/mol.K
   Vibrational Entropy:          38.373  cal/mol.K

   Total Enthalpy:               63.621 kcal/mol
   Total Entropy:               110.706  cal/mol.K
Archival summary:
1\1\bt2600-16\FREQ\ProcedureUnspecified\6-31+G*\456(2-,1)\emavera\MonJun517:58:222017MonJun517:58:222017\0\\#,FREQ,ProcedureUnspecified,6-31+G*,\\-2,1\O\C,1,1.26551\O,2,1.24917,1,131.069\C,2,1.49884,1,106.91,3,179.8,0\C,4,1.22766,2,161.637,1,8.64991,0\H,5,1.09294,4,136.728,2,-10.309,0\H,1,2.13915,2,115.539,3,174.442,0\O,7,0.986668,1,167.237,2,20.8311,0\H,8,0.975575,7,106.685,1,-144.765,0\H,9,3.13836,8,166.997,7,169.195,0\C,10,1.10026,9,100.652,8,81.6582,0\H,11,1.10149,10,110.381,9,-44.9656,0\H,11,1.10162,10,110.765,9,78.067,0\O,10,3.57061,9,78.0739,8,-88.3966,0\C,14,1.14162,10,94.0673,9,114.048,0\\\@

 Total job time:  1811.00s(wall), 1811.56s(cpu) 
 Mon Jun  5 17:58:22 2017

        *************************************************************
        *                                                           *
        *  Thank you very much for using Q-Chem.  Have a nice day.  *
        *                                                           *
        *************************************************************


0 sent ACK to 0 
now end server 0 ... 
cleanup process ... done
