
Running Job 1 of 2 ts_solv_wo01.qcin
qchem ts_solv_wo01.qcin_56796.0 /tmp/ts_solv_wo01.qcin/ 1
/programs/x86_64/lib/qchem-4.3.2/bin/mpi/mpirun_qchem -machinefile /var/spool/torque/aux//114849.vali -np 1 /programs/x86_64/lib/qchem-4.3.2/exe/qcprog.exe ts_solv_wo01.qcin_56796.0 /tmp/ts_solv_wo01.qcin/

Process 0 of 1 is on bt2600-16.csail.mit.edu - thread support 0
initial socket setup ...start
initial socket setup ...done 
now start server 0 ... 

cmd = ssh thor /programs/x86_64/lib/qchem-4.3.2/bin/get_hostid 566605098 > /tmp/ts_solv_wo01.qcin/lic.dat
                  Welcome to Q-Chem
     A Quantum Leap Into The Future Of Chemistry


 Q-Chem 4.3, Q-Chem, Inc., Pleasanton, CA (2015)

 Y. Shao,  Z. Gan,  E. Epifanovsky,  A. T. B. Gilbert,  M. Wormit,  
 J. Kussmann,  A. W. Lange,  A. Behn,  J. Deng,  X. Feng,  D. Ghosh,  
 M. Goldey,  P. R. Horn,  L. D. Jacobson,  I. Kaliman,  R. Z. Khaliullin,  
 T. Kus,  A. Landau,  J. Liu,  E. I. Proynov,  Y. M. Rhee,  R. M. Richard,  
 M. A. Rohrdanz,  R. P. Steele,  E. J. Sundstrom,  H. L. Woodcock III,  
 P. M. Zimmerman,  D. Zuev,  B. Albrecht,  E. Alguire,  B. Austin,  
 S. A. Baeppler,  G. J. O. Beran,  Y. A. Bernard,  E. Berquist,  
 K. Brandhorst,  K. B. Bravaya,  S. T. Brown,  D. Casanova,  C.-M. Chang,  
 Y. Chen,  S. H. Chien,  K. D. Closser,  D. L. Crittenden,  M. Diedenhofen,  
 R. A. DiStasio Jr.,  H. Do,  A. D. Dutoi,  R. G. Edgar,  P.-T. Fang,  
 S. Fatehi,  Q. Feng,  L. Fusti-Molnar,  A. Ghysels,  
 A. Golubeva-Zadorozhnaya,  J. Gomes,  A. Gunina,  M. W. D. Hanson-Heine,  
 P. H. P. Harbach,  A. W. Hauser,  E. G. Hohenstein,  Z. C. Holden,  K. Hui,  
 T.-C. Jagau,  H. Ji,  B. Kaduk,  K. Khistyaev,  Jaehoon Kim,  Jihan Kim,  
 R. A. King,  P. Klunzinger,  D. Kosenkov,  T. Kowalczyk,  C. M. Krauter,  
 K. U. Lao,  A. Laurent,  K. V. Lawler,  S. Lehtola,  S. V. Levchenko,  
 C. Y. Lin,  Y.-S. Lin,  F. Liu,  E. Livshits,  R. C. Lochan,  A. Luenser,  
 P. Manohar,  S. F. Manzer,  S.-P. Mao,  N. Mardirossian,  A. V. Marenich,  
 L. A. Martinez-Martinez,  S. A. Maurer,  N. J. Mayhall,  K. Nanda,  
 C. M. Oana,  R. Olivares-Amaya,  D. P. O'Neill,  J. A. Parkhill,  
 T. M. Perrine,  R. Peverati,  P. A. Pieniazek,  F. Plasser,  A. Prociuk,  
 D. R. Rehn,  E. Rosta,  N. J. Russ,  N. Sergueev,  S. M. Sharada,  
 S. Sharma,  D. W. Small,  A. Sodt,  T. Stauch,  T. Stein,  D. Stuck,  
 Y.-C. Su,  A. J. W. Thom,  T. Tsuchimochi,  L. Vogt,  O. Vydrov,  T. Wang,  
 M. A. Watson,  J. Wenzel,  A. White,  C. F. Williams,  V. Vanovschi,  
 S. Yeganeh,  S. R. Yost,  Z.-Q. You,  I. Y. Zhang,  X. Zhang,  Y. Zhao,  
 B. R. Brooks,  G. K. L. Chan,  D. M. Chipman,  C. J. Cramer,  
 W. A. Goddard III,  M. S. Gordon,  W. J. Hehre,  A. Klamt,  
 H. F. Schaefer III,  M. W. Schmidt,  C. D. Sherrill,  D. G. Truhlar,  
 A. Warshel,  X. Xu,  A. Aspuru-Guzik,  R. Baer,  A. T. Bell,  N. A. Besley,  
 J.-D. Chai,  A. Dreuw,  B. D. Dunietz,  T. R. Furlani,  S. R. Gwaltney,  
 C.-P. Hsu,  Y. Jung,  J. Kong,  D. S. Lambrecht,  W. Liang,  C. Ochsenfeld,  
 V. A. Rassolov,  L. V. Slipchenko,  J. E. Subotnik,  T. Van Voorhis,  
 J. M. Herbert,  A. I. Krylov,  P. M. W. Gill,  M. Head-Gordon

 Contributors to earlier versions of Q-Chem not listed above: 
 R. D. Adamson,  J. Baker,  E. F. C. Byrd,  A. K. Chakraborty,  C.-L. Cheng,  
 H. Dachsel,  R. J. Doerksen,  G. Hawkins,  A. Heyden,  S. Hirata,  
 G. Kedziora,  F. J. Keil,  C. Kelley,  P. P. Korambath,  W. Kurlancheek,  
 A. M. Lee,  M. S. Lee,  D. Liotard,  I. Lotan,  P. E. Maslen,  N. Nair,  
 D. Neuhauser,  R. Olson,  B. Peters,  J. Ritchie,  N. E. Schultz,  
 N. Shenvi,  A. C. Simmonett,  K. S. Thanthiriwatte,  Q. Wu,  W. Zhang

 Please cite Q-Chem as follows:
 Y. Shao et al., Mol. Phys. 113, 184-215 (2015)
 DOI: 10.1080/00268976.2014.952696

 Q-Chem 4.3.0 for Intel X86 Linux

 Parts of Q-Chem use Armadillo 5.200.1 (Boston Tea Smuggler).
 http://arma.sourceforge.net/

 Q-Chem begins on Tue May  9 12:26:31 2017  

Host: 
0

     Scratch files written to /tmp/ts_solv_wo01.qcin//
 Oct1215 13750_ 19228  19214 4150   
 Parallel job on  1  processors
Processing $rem in /programs/x86_64/lib/qchem-4.3.2/config/preferences.
 MEM_TOTAL  2000 

Checking the input file for inconsistencies... 	...done.

--------------------------------------------------------------
User input:
--------------------------------------------------------------
$comment
Title
$end

$molecule
-2 1
C         1.886        -0.049          0.569
O         2.443         0.525         -0.394
O         2.387        -0.140          1.732
C         0.467        -0.818          0.586
O        -0.071        -0.784         -1.399
C         0.488        -1.930          1.184
O        -0.879        -0.160          0.518
C        -1.916        -0.793          0.880
H        -1.080         1.361          0.349
H        -0.817         1.766         -0.634
H        -0.496         1.911          1.102
C        -2.151         1.531          0.536
H        -0.569        -1.746         -1.515
H         0.941        -0.773         -1.812
H        -0.655        -0.006         -1.924
$end

$molecule
READ
$end

$solvent
CavityRadius    30
Dielectric     78.39
$end

$rem
jobtype          TS
exchange         b3lyp
basis            6-31+G(d)
geom_opt_maxcyc  100
SOLVENT_METHOD ONSAGER
$end

--------------------------------------------------------------
 ----------------------------------------------------------------
             Standard Nuclear Orientation (Angstroms)
    I     Atom           X                Y                Z
 ----------------------------------------------------------------
    1      C       1.5750426864    -0.0624824771     0.3009785893
    2      O       1.9863693348     1.0091866468     0.8004079407
    3      O       2.1925934520    -1.1690428613     0.3784780609
    4      C       0.2328656844    -0.3105144621    -0.5605619087
    5      O      -0.4966287956     1.5988931571    -0.7903995637
    6      C       0.4037747583    -1.0169127363    -1.5932189508
    7      O      -1.1631249818    -0.3162121521    -0.0123998923
    8      C      -2.1041090166    -0.8506195450    -0.6727481222
    9      H      -1.5046376535    -0.0098824553     1.4613484620
   10      H      -1.3728827822     1.0326350364     1.7700245597
   11      H      -0.8976291479    -0.6346316153     2.1335048137
   12      C      -2.5627379718    -0.2901228590     1.5744812711
   13      H      -0.9223246782     1.5594157766    -1.7924617135
   14      H       0.4660101394     2.1154548419    -0.7540085407
   15      H      -1.1912247972     2.1383225673    -0.1206852172
 ----------------------------------------------------------------
 Molecular Point Group                 C1    NOp =  1
 Largest Abelian Subgroup              C1    NOp =  1
 Nuclear Repulsion Energy =   438.0882340987 hartrees
 There are       35 alpha and       35 beta electrons
 Requested basis set is 6-31+G(d)
 There are 57 shells and 183 basis functions

 Total QAlloc Memory Limit   2000 MB
 Mega-Array Size        61 MB
 MEM_STATIC part        62 MB
 A cutoff of  1.0D-11 yielded   1525 shell pairs
 There are     16282 function pairs
 
 -------------------------------------------------------
 OpenMP Integral Computing Module                       
 Release: version 1.0, May 2013, Q-Chem Inc. Pittsburgh 
 -------------------------------------------------------
 Integral Job Info:
 Integral job number is                      11
 Integral operator is                         1
 short-range coefficients                     0
 long-range coefficients              100000000
 Omega coefficients                           0
 if combine SR and LR in K                    0
 Integral screening is                        0
 Integral computing path is                   2
 max size of driver memory is            800000
 size of driver memory is                593474
 size of scratch memory is              2260544
 max col of scratch BK array               1296
 max len of scratch array in speh3          155
 max len of scratch index in speh4           18
 max int batch size is                      520
 min int batch size is                       52
 fixed nKL is                                52
 max L of basis functions is                  2
 order of int derivative is                   0
 number of shells is                         57
 number of basis is                         183
 number of cartesian basis is               183
 number of contracted shell pairs          1525
 number of primitive shell pairs           5216
 maxK2 (contraction) of shell pair           36
 max number of K2 of shell pair               1
 max number of CS2 of shell pair            182
 max number of PS2 of shell pair           1092
 mem total for path MDJ                   43170
 -------------------------------------------------------
 Smallest overlap matrix eigenvalue = 1.76E-05
 Placing solute cavity origin at the center of mass
 Center of Onsager solute cavity (Angst): (   0.041279,  -0.047363,  -0.020600)
 Solvent multipole matrices computed through 15th order

 Scale SEOQF with 1.000000e-01/1.000000e-01/1.000000e-01

 Standard Electronic Orientation quadrupole field applied
 Guess from superposition of atomic densities
 Warning:  Energy on first SCF cycle will be non-variational
 A restricted hybrid HF-DFT SCF calculation will be
 performed using Pulay DIIS extrapolation
 Kirkwood-Onsager solvation model will be applied
 Exchange:     0.2000 Hartree-Fock + 0.0800 Slater + 0.7200 B88
 Correlation:  0.1900 VWN1RPA + 0.8100 LYP
 Using SG-1 standard quadrature grid
 SCF converges when DIIS error is below 1.0E-08
 Kirkwood-Onsager SCRF: 
 Maximum multipole order     = 15
 Solvent dielectric constant = 78.3900
 Cavity radius               = 56.6917 bohr
 Born term (E_born)          = -0.03482849 a.u. = -21.8552 kcal/mol
 CPU 0.00 s  wall 0.00 s
 Inaccurate integrated density:
   Number of electrons =    70
   Numerical integral  =    68.000031551423
   Relative error      =    -2.8570977837 %
 CPU 5.72 s  wall 5.72 s
 ---------------------------------------
  Cycle       Energy         DIIS Error
 ---------------------------------------
    1    -495.5733879249      4.63E-02
 CPU 0.00 s  wall 0.00 s
 CPU 6.37 s  wall 6.37 s
    2    -493.3747742812      1.16E-02
 CPU 0.00 s  wall 0.00 s
 CPU 6.38 s  wall 6.38 s
    3    -480.3430023833      3.93E-02
 CPU 0.00 s  wall 0.00 s
 CPU 6.34 s  wall 6.34 s
    4    -493.1973430265      1.34E-02
 CPU 0.00 s  wall 0.00 s
 CPU 6.37 s  wall 6.37 s
    5    -493.7952293045      8.01E-03
 CPU 0.00 s  wall 0.00 s
 CPU 6.34 s  wall 6.34 s
    6    -493.8096626308      7.07E-03
 CPU 0.00 s  wall 0.00 s
 CPU 6.34 s  wall 6.35 s
    7    -494.1146324363      3.02E-03
 CPU 0.00 s  wall 0.00 s
 CPU 6.18 s  wall 6.18 s
    8    -494.0786250323      3.75E-03
 CPU 0.00 s  wall 0.00 s
 CPU 6.32 s  wall 6.32 s
    9    -494.1503499774      2.23E-03
 CPU 0.00 s  wall 0.00 s
 CPU 6.27 s  wall 6.27 s
   10    -494.1783333821      5.11E-04
 CPU 0.00 s  wall 0.00 s
 CPU 6.22 s  wall 6.22 s
   11    -494.1797963990      2.95E-04
 CPU 0.00 s  wall 0.00 s
 CPU 6.20 s  wall 6.20 s
   12    -494.1801840597      1.07E-04
 CPU 0.00 s  wall 0.00 s
 CPU 6.13 s  wall 6.13 s
   13    -494.1802457129      5.29E-05
 CPU 0.00 s  wall 0.00 s
 CPU 6.09 s  wall 6.09 s
   14    -494.1802624646      4.94E-05
 CPU 0.00 s  wall 0.00 s
 CPU 6.11 s  wall 6.11 s
   15    -494.1802774641      3.72E-05
 CPU 0.00 s  wall 0.00 s
 CPU 6.14 s  wall 6.14 s
   16    -494.1802900286      2.87E-05
 CPU 0.00 s  wall 0.00 s
 CPU 6.03 s  wall 6.04 s
   17    -494.1802955385      1.70E-05
 CPU 0.00 s  wall 0.00 s
 CPU 6.03 s  wall 6.04 s
   18    -494.1802975576      1.07E-05
 CPU 0.00 s  wall 0.00 s
 CPU 6.00 s  wall 6.01 s
   19    -494.1802987927      4.03E-06
 CPU 0.00 s  wall 0.00 s
 CPU 5.98 s  wall 5.98 s
   20    -494.1802990167      1.99E-06
 CPU 0.00 s  wall 0.00 s
 CPU 5.92 s  wall 5.92 s
   21    -494.1802990707      4.39E-07
 CPU 0.00 s  wall 0.00 s
 CPU 5.81 s  wall 5.81 s
   22    -494.1802990739      4.52E-07
 CPU 0.00 s  wall 0.00 s
 CPU 5.82 s  wall 5.82 s
   23    -494.1802990810      3.16E-07
 CPU 0.00 s  wall 0.00 s
 CPU 5.78 s  wall 5.78 s
   24    -494.1802990817      1.23E-07
 CPU 0.00 s  wall 0.00 s
 CPU 5.64 s  wall 5.64 s
   25    -494.1802990815      7.52E-08
 CPU 0.00 s  wall 0.00 s
 CPU 5.52 s  wall 5.52 s
   26    -494.1802990811      1.95E-08
 CPU 0.00 s  wall 0.00 s
 CPU 5.27 s  wall 5.27 s
   27    -494.1802990800      8.18E-09 Convergence criterion met
 ---------------------------------------
 SCF time:  CPU 416.66 s  wall 416.98 s
 SCF   energy in the final basis set = -494.1802990800
 Total energy in the final basis set = -494.1802990800
 
 --------------------------------------------------------------
 
                    Orbital Energies (a.u.)
 --------------------------------------------------------------
 
 Alpha MOs
 -- Occupied --
-19.043 -19.003 -18.846 -18.819 -10.024 -10.017  -9.943  -9.942
 -9.918  -0.889  -0.856  -0.759  -0.666  -0.514  -0.413  -0.385
 -0.360  -0.340  -0.276  -0.253  -0.198  -0.173  -0.156  -0.132
 -0.120  -0.098  -0.061  -0.022   0.000   0.013   0.021   0.043
  0.057   0.105   0.125
 -- Virtual --
  0.166   0.178   0.187   0.245   0.247   0.249   0.261   0.262
  0.268   0.279   0.284   0.293   0.299   0.313   0.317   0.327
  0.331   0.336   0.338   0.342   0.354   0.370   0.375   0.385
  0.394   0.414   0.419   0.423   0.445   0.453   0.469   0.476
  0.488   0.505   0.519   0.538   0.551   0.559   0.565   0.576
  0.580   0.588   0.594   0.607   0.623   0.649   0.655   0.701
  0.721   0.746   0.764   0.802   0.937   0.951   0.971   0.996
  1.009   1.014   1.039   1.044   1.051   1.060   1.080   1.111
  1.137   1.146   1.172   1.196   1.215   1.224   1.259   1.279
  1.293   1.356   1.389   1.399   1.431   1.442   1.480   1.494
  1.529   1.554   1.569   1.582   1.605   1.618   1.628   1.635
  1.667   1.695   1.714   1.766   1.794   1.799   1.815   1.861
  1.892   1.941   1.964   1.980   1.988   2.018   2.034   2.047
  2.078   2.090   2.126   2.139   2.148   2.163   2.181   2.208
  2.259   2.269   2.295   2.337   2.391   2.401   2.457   2.506
  2.547   2.593   2.608   2.632   2.648   2.690   2.700   2.710
  2.769   2.867   2.965   2.983   3.053   3.132   3.205   3.314
  3.352   3.400   3.453   4.323   4.442   4.470   4.557   4.590
  4.644   4.701   4.751   4.963
 --------------------------------------------------------------
 
          Ground-State Mulliken Net Atomic Charges

     Atom                 Charge (a.u.)
  ----------------------------------------
      1 C                     0.267591
      2 O                    -0.465606
      3 O                    -0.559111
      4 C                    -1.535512
      5 O                    -0.225395
      6 C                    -0.523187
      7 O                     0.397117
      8 C                    -0.098950
      9 H                    -0.004919
     10 H                     0.046561
     11 H                     0.017543
     12 C                    -0.524752
     13 H                     0.386838
     14 H                     0.429911
     15 H                     0.391870
  ----------------------------------------
  Sum of atomic charges =    -2.000000

 -----------------------------------------------------------------
                    Cartesian Multipole Moments
 -----------------------------------------------------------------
    Charge (ESU x 10^10)
                -9.6064
    Dipole Moment (Debye)
         X       2.3653      Y       3.8807      Z      -6.7299
       Tot       8.1207
    Quadrupole Moments (Debye-Ang)
        XX    -121.4561     XY       1.2152     YY     -81.8019
        XZ      11.8466     YZ      -8.6176     ZZ     -99.7358
    Octopole Moments (Debye-Ang^2)
       XXX     107.3874    XXY      10.8650    XYY      14.5619
       YYY      -1.9259    XXZ     -67.3003    XYZ      -2.8848
       YYZ      -9.7919    XZZ      57.2477    YZZ      13.1370
       ZZZ     -42.2275
    Hexadecapole Moments (Debye-Ang^3)
      XXXX   -1642.8534   XXXY      -8.1782   XXYY    -346.8714
      XYYY      19.1266   YYYY    -538.3265   XXXZ     172.6020
      XXYZ     -10.6055   XYYZ      21.5424   YYYZ     -30.4510
      XXZZ    -448.9487   XYZZ      -9.9173   YYZZ    -229.8379
      XZZZ     176.5863   YZZZ     -34.7769   ZZZZ    -795.6766
 -----------------------------------------------------------------
 Calculating analytic gradient of the SCF energy
 CPU 0.00 s  wall 0.00 s
 CPU 9.93 s  wall 9.93 s
 Gradient of SCF Energy
            1           2           3           4           5           6
    1  -0.0095172   0.0238980   0.0007979  -0.0918177  -0.0032171  -0.0150750
    2   0.0376714  -0.0212534  -0.0056185   0.0182973  -0.0957944   0.0218547
    3  -0.0101524   0.0180123   0.0006207  -0.0200083   0.0216787   0.0528825
            7           8           9          10          11          12
    1   0.0346830   0.0032608   0.0005583   0.0233523   0.0143095   0.0127627
    2   0.0450012  -0.0145078  -0.0059018  -0.0329199   0.0284391  -0.0039496
    3   0.0724052  -0.0503074   0.0004032  -0.0005146  -0.0206038  -0.0392512
           13          14          15
    1  -0.0166926   0.0350395  -0.0123424
    2  -0.0040212   0.0210520   0.0116510
    3  -0.0245914  -0.0008571   0.0002837
 Max gradient component =       9.579E-02
 RMS gradient           =       3.135E-02
 Gradient time:  CPU 88.54 s  wall 88.66 s
 Geometry Optimization Parameters
   NAtoms,    NIC,     NZ,  NCons,   NDum,   NFix, NCnnct, MaxDiis
       15     170       0       0       0       0       0       0


** GEOMETRY OPTIMIZATION IN DELOCALIZED INTERNAL COORDINATES **
   Searching for a Transition State

   Optimization Cycle:   1

                       Coordinates (Angstroms)
     ATOM                X               Y               Z
      1  C         1.5750426864   -0.0624824771    0.3009785893
      2  O         1.9863693348    1.0091866468    0.8004079407
      3  O         2.1925934520   -1.1690428613    0.3784780609
      4  C         0.2328656844   -0.3105144621   -0.5605619087
      5  O        -0.4966287956    1.5988931571   -0.7903995637
      6  C         0.4037747583   -1.0169127363   -1.5932189508
      7  O        -1.1631249818   -0.3162121521   -0.0123998923
      8  C        -2.1041090166   -0.8506195450   -0.6727481222
      9  H        -1.5046376535   -0.0098824553    1.4613484620
     10  H        -1.3728827822    1.0326350364    1.7700245597
     11  H        -0.8976291479   -0.6346316153    2.1335048137
     12  C        -2.5627379718   -0.2901228590    1.5744812711
     13  H        -0.9223246782    1.5594157766   -1.7924617135
     14  H         0.4660101394    2.1154548419   -0.7540085407
     15  H        -1.1912247972    2.1383225673   -0.1206852172
   Point Group: c1    Number of degrees of freedom:    39


   Energy is   -494.180299080


 Attempting to Generate Delocalized Internal Coordinates

 39 Hessian modes will be used to form the next step
  Hessian Eigenvalues:
     0.002000    0.002020    0.004512    0.006778    0.018571    0.022395
     0.023536    0.024334    0.026850    0.029065    0.033853    0.037382
     0.043829    0.044786    0.060649    0.068926    0.076350    0.077859
     0.080547    0.086677    0.092519    0.099485    0.101416    0.102801
     0.111817    0.125306    0.141187    0.188054    0.228489    0.250000
     0.250000    0.286796    0.307342    0.344586    0.348761    0.763999
     0.770201    0.786913    0.825620
**WARNING** Hessian does not have the Desired Local Structure

 Transition State Search - Taking P-RFO Step
 Searching for Lamda that Maximizes Along the Lowest mode
 Value Taken    Lamda =   0.00543298
 Searching for Lamda that Minimizes Along All other modes
 Value Taken    Lamda =  -0.10903842
 Calculated Step too Large.  Step scaled by  0.209808
 Step Taken.  Stepsize is  0.300000

                             Maximum     Tolerance    Cnvgd?
         Gradient           0.084962      0.000300      NO
         Displacement       0.120169      0.001200      NO
         Energy change     *********      0.000001      NO


 New Cartesian Coordinates Obtained by Inverse Iteration

 Displacement from previous Coordinates is:  0.398278
 ----------------------------------------------------------------
             Standard Nuclear Orientation (Angstroms)
    I     Atom           X                Y                Z
 ----------------------------------------------------------------
    1      C       1.5842464313    -0.0762581748     0.2879983072
    2      O       1.9030635358     0.9949645334     0.8526870298
    3      O       2.2898169662    -1.1308012953     0.2725243665
    4      C       0.2510994556    -0.3362642967    -0.5724737609
    5      O      -0.4814298080     1.5990210829    -0.7940177167
    6      C       0.4272238230    -1.0433567152    -1.6124923186
    7      O      -1.1652031928    -0.3293150738    -0.0174427603
    8      C      -2.1187548051    -0.8565946541    -0.6579572164
    9      H      -1.5286977593     0.0006690979     1.4828351280
   10      H      -1.3894580015     1.0517978599     1.7787993582
   11      H      -0.9372335544    -0.6268335648     2.1719684778
   12      C      -2.5939586300    -0.2639257468     1.5987934264
   13      H      -0.9014678028     1.5685383605    -1.7910732229
   14      H       0.4755977389     2.1045683136    -0.7536139773
   15      H      -1.1734881662     2.1372771362    -0.1237953326
 ----------------------------------------------------------------
 Molecular Point Group                 C1    NOp =  1
 Largest Abelian Subgroup              C1    NOp =  1
 Nuclear Repulsion Energy =   436.1524226798 hartrees
 There are       35 alpha and       35 beta electrons
 Requested basis set is 6-31+G(d)
 There are 57 shells and 183 basis functions
 A cutoff of  1.0D-11 yielded   1527 shell pairs
 There are     16284 function pairs
 Smallest overlap matrix eigenvalue = 1.76E-05
 Placing solute cavity origin at the center of mass
 Center of Onsager solute cavity (Angst): (   0.044820,  -0.049958,  -0.028213)
 Solvent multipole matrices computed through 15th order

 Scale SEOQF with 1.000000e-01/1.000000e-01/1.000000e-01

 Standard Electronic Orientation quadrupole field applied
 Guess MOs from SCF MO coefficient file
 Reading MOs from coefficient file
 Reading MOs from coefficient file
 A restricted hybrid HF-DFT SCF calculation will be
 performed using Pulay DIIS extrapolation
 Kirkwood-Onsager solvation model will be applied
 Exchange:     0.2000 Hartree-Fock + 0.0800 Slater + 0.7200 B88
 Correlation:  0.1900 VWN1RPA + 0.8100 LYP
 Using SG-1 standard quadrature grid
 SCF converges when DIIS error is below 1.0E-08
 Kirkwood-Onsager SCRF: 
 Maximum multipole order     = 15
 Solvent dielectric constant = 78.3900
 Cavity radius               = 56.6917 bohr
 Born term (E_born)          = -0.03482849 a.u. = -21.8552 kcal/mol
Geometry optimization detected.  Setting ReadMinima to 0
Setting SaveMinima to 0
 CPU 0.00 s  wall 0.00 s
 CPU 8.15 s  wall 8.16 s
 ---------------------------------------
  Cycle       Energy         DIIS Error
 ---------------------------------------
    1    -494.1920773497      3.16E-03
 CPU 0.00 s  wall 0.00 s
 CPU 6.24 s  wall 6.24 s
    2    -494.1988259650      5.98E-04
 CPU 0.00 s  wall 0.00 s
 CPU 6.24 s  wall 6.24 s
    3    -494.1857100895      1.60E-03
 CPU 0.00 s  wall 0.00 s
 CPU 6.22 s  wall 6.22 s
    4    -494.1979331369      7.10E-04
 CPU 0.00 s  wall 0.00 s
 CPU 6.19 s  wall 6.19 s
    5    -494.2009220218      1.58E-04
 CPU 0.00 s  wall 0.00 s
 CPU 6.15 s  wall 6.15 s
    6    -494.2010016607      1.09E-04
 CPU 0.00 s  wall 0.00 s
 CPU 6.12 s  wall 6.13 s
    7    -494.2010644471      5.02E-05
 CPU 0.00 s  wall 0.00 s
 CPU 6.09 s  wall 6.09 s
    8    -494.2010851102      2.17E-05
 CPU 0.00 s  wall 0.00 s
 CPU 6.05 s  wall 6.06 s
    9    -494.2010902035      1.59E-05
 CPU 0.00 s  wall 0.00 s
 CPU 6.04 s  wall 6.05 s
   10    -494.2010941942      1.09E-05
 CPU 0.00 s  wall 0.00 s
 CPU 6.04 s  wall 6.04 s
   11    -494.2010966057      6.85E-06
 CPU 0.00 s  wall 0.00 s
 CPU 5.99 s  wall 5.99 s
   12    -494.2010972903      2.50E-06
 CPU 0.00 s  wall 0.00 s
 CPU 5.88 s  wall 5.89 s
   13    -494.2010973509      1.44E-06
 CPU 0.00 s  wall 0.00 s
 CPU 5.88 s  wall 5.88 s
   14    -494.2010973889      7.78E-07
 CPU 0.00 s  wall 0.00 s
 CPU 5.82 s  wall 5.82 s
   15    -494.2010974044      4.57E-07
 CPU 0.00 s  wall 0.00 s
 CPU 5.82 s  wall 5.83 s
   16    -494.2010974130      3.06E-07
 CPU 0.00 s  wall 0.00 s
 CPU 5.71 s  wall 5.71 s
   17    -494.2010974141      1.37E-07
 CPU 0.00 s  wall 0.00 s
 CPU 5.69 s  wall 5.69 s
   18    -494.2010974144      5.14E-08
 CPU 0.00 s  wall 0.00 s
 CPU 5.43 s  wall 5.43 s
   19    -494.2010974139      2.80E-08
 CPU 0.00 s  wall 0.00 s
 CPU 5.25 s  wall 5.26 s
   20    -494.2010974146      7.48E-09 Convergence criterion met
 ---------------------------------------
 SCF time:  CPU 306.53 s  wall 306.99 s
 SCF   energy in the final basis set = -494.2010974146
 Total energy in the final basis set = -494.2010974146
 
 --------------------------------------------------------------
 
                    Orbital Energies (a.u.)
 --------------------------------------------------------------
 
 Alpha MOs
 -- Occupied --
-19.044 -19.003 -18.844 -18.820 -10.025 -10.020  -9.943  -9.940
 -9.919  -0.886  -0.858  -0.759  -0.667  -0.510  -0.406  -0.381
 -0.363  -0.342  -0.276  -0.251  -0.199  -0.172  -0.157  -0.133
 -0.121  -0.100  -0.060  -0.022   0.001   0.013   0.021   0.041
  0.054   0.102   0.125
 -- Virtual --
  0.167   0.177   0.187   0.243   0.247   0.248   0.261   0.262
  0.268   0.279   0.284   0.291   0.299   0.312   0.316   0.325
  0.332   0.335   0.337   0.341   0.354   0.369   0.375   0.386
  0.394   0.413   0.419   0.422   0.442   0.453   0.469   0.477
  0.488   0.504   0.521   0.537   0.549   0.558   0.564   0.575
  0.581   0.588   0.593   0.605   0.622   0.646   0.655   0.701
  0.715   0.745   0.762   0.807   0.936   0.951   0.973   0.994
  1.009   1.012   1.039   1.044   1.053   1.063   1.083   1.115
  1.132   1.147   1.174   1.190   1.214   1.223   1.259   1.283
  1.292   1.346   1.379   1.399   1.429   1.440   1.476   1.496
  1.530   1.551   1.568   1.574   1.602   1.623   1.629   1.634
  1.671   1.696   1.709   1.768   1.789   1.800   1.818   1.862
  1.882   1.934   1.958   1.974   1.985   2.015   2.032   2.038
  2.074   2.083   2.123   2.135   2.142   2.158   2.181   2.201
  2.255   2.265   2.287   2.331   2.379   2.399   2.444   2.496
  2.541   2.596   2.613   2.622   2.642   2.683   2.696   2.707
  2.764   2.861   2.958   2.981   3.060   3.122   3.202   3.317
  3.357   3.394   3.453   4.311   4.434   4.459   4.550   4.584
  4.642   4.703   4.754   4.958
 --------------------------------------------------------------
 
          Ground-State Mulliken Net Atomic Charges

     Atom                 Charge (a.u.)
  ----------------------------------------
      1 C                     0.288017
      2 O                    -0.442980
      3 O                    -0.572280
      4 C                    -1.524074
      5 O                    -0.258625
      6 C                    -0.604797
      7 O                     0.416846
      8 C                    -0.065242
      9 H                     0.004228
     10 H                     0.045178
     11 H                     0.013628
     12 C                    -0.529004
     13 H                     0.391737
     14 H                     0.439625
     15 H                     0.397744
  ----------------------------------------
  Sum of atomic charges =    -2.000000

 -----------------------------------------------------------------
                    Cartesian Multipole Moments
 -----------------------------------------------------------------
    Charge (ESU x 10^10)
                -9.6064
    Dipole Moment (Debye)
         X       2.4013      Y       3.8078      Z      -6.8526
       Tot       8.1990
    Quadrupole Moments (Debye-Ang)
        XX    -122.4629     XY       2.0607     YY     -81.2227
        XZ      13.2066     YZ      -9.3644     ZZ    -100.6670
    Octopole Moments (Debye-Ang^2)
       XXX     108.4625    XXY      11.9550    XYY      15.6597
       YYY      -1.9642    XXZ     -69.5459    XYZ      -3.8804
       YYZ      -9.9604    XZZ      59.6639    YZZ      12.5297
       ZZZ     -45.9843
    Hexadecapole Moments (Debye-Ang^3)
      XXXX   -1680.3758   XXXY       5.3792   XXYY    -348.2595
      XYYY      24.9054   YYYY    -534.7558   XXXZ     196.5260
      XXYZ     -15.2955   XYYZ      26.7338   YYYZ     -38.2323
      XXZZ    -461.7626   XYZZ      -7.8325   YYZZ    -231.8769
      XZZZ     195.6868   YZZZ     -41.9278   ZZZZ    -818.3496
 -----------------------------------------------------------------
 Calculating analytic gradient of the SCF energy
 CPU 0.00 s  wall 0.00 s
 CPU 9.96 s  wall 9.97 s
 Gradient of SCF Energy
            1           2           3           4           5           6
    1  -0.0087699   0.0207541   0.0009412  -0.0892490  -0.0031865  -0.0131704
    2   0.0303941  -0.0166962  -0.0058327   0.0261243  -0.0896127   0.0139877
    3  -0.0055724   0.0151391  -0.0007851  -0.0108126   0.0190240   0.0416091
            7           8           9          10          11          12
    1   0.0423211  -0.0040927   0.0047973   0.0238123   0.0150034   0.0045475
    2   0.0464087  -0.0191769  -0.0046924  -0.0315775   0.0282117  -0.0058889
    3   0.0734146  -0.0548065   0.0041090   0.0011071  -0.0200835  -0.0385638
           13          14          15
    1  -0.0155658   0.0335451  -0.0116878
    2  -0.0028793   0.0200533   0.0111768
    3  -0.0223966  -0.0010886  -0.0002937
 Max gradient component =       8.961E-02
 RMS gradient           =       3.023E-02
 Gradient time:  CPU 87.76 s  wall 87.90 s
 Geometry Optimization Parameters
   NAtoms,    NIC,     NZ,  NCons,   NDum,   NFix, NCnnct, MaxDiis
       15     170       0       0       0       0       0       0

 Cartesian Hessian Update
 Hessian Updated using Powell/Murtagh-Sargent Update
  Mixing factors:     0.004931 Powell
                      0.995069 Murtagh-Sargent


** GEOMETRY OPTIMIZATION IN DELOCALIZED INTERNAL COORDINATES **
   Searching for a Transition State

   Optimization Cycle:   2

                       Coordinates (Angstroms)
     ATOM                X               Y               Z
      1  C         1.5842464313   -0.0762581748    0.2879983072
      2  O         1.9030635358    0.9949645334    0.8526870298
      3  O         2.2898169662   -1.1308012953    0.2725243665
      4  C         0.2510994556   -0.3362642967   -0.5724737609
      5  O        -0.4814298080    1.5990210829   -0.7940177167
      6  C         0.4272238230   -1.0433567152   -1.6124923186
      7  O        -1.1652031928   -0.3293150738   -0.0174427603
      8  C        -2.1187548051   -0.8565946541   -0.6579572164
      9  H        -1.5286977593    0.0006690979    1.4828351280
     10  H        -1.3894580015    1.0517978599    1.7787993582
     11  H        -0.9372335544   -0.6268335648    2.1719684778
     12  C        -2.5939586300   -0.2639257468    1.5987934264
     13  H        -0.9014678028    1.5685383605   -1.7910732229
     14  H         0.4755977389    2.1045683136   -0.7536139773
     15  H        -1.1734881662    2.1372771362   -0.1237953326
   Point Group: c1    Number of degrees of freedom:    39


   Energy is   -494.201097415

 Hessian Updated using Powell/Murtagh-Sargent Update
  Mixing factors:     0.979541 Powell
                      0.020459 Murtagh-Sargent

 39 Hessian modes will be used to form the next step
  Hessian Eigenvalues:
    -0.000583    0.002032    0.004648    0.007389    0.018537    0.022339
     0.023555    0.024348    0.027084    0.029073    0.034931    0.037259
     0.043806    0.045431    0.060306    0.066196    0.076374    0.077754
     0.080250    0.086444    0.091954    0.096620    0.101469    0.102678
     0.111973    0.125452    0.140701    0.189096    0.228321    0.249157
     0.251075    0.280119    0.306562    0.342980    0.348411    0.763885
     0.766147    0.787874    0.825625

 Transition State Search - Taking P-RFO Step
 Searching for Lamda that Maximizes Along the Lowest mode
 Value Taken    Lamda =   0.01876860
 Searching for Lamda that Minimizes Along All other modes
 Value Taken    Lamda =  -0.10447327
 Calculated Step too Large.  Step scaled by  0.247457
 Step Taken.  Stepsize is  0.300000

                             Maximum     Tolerance    Cnvgd?
         Gradient           0.074528      0.000300      NO
         Displacement       0.098410      0.001200      NO
         Energy change     -0.020798      0.000001      NO


 New Cartesian Coordinates Obtained by Inverse Iteration

 Displacement from previous Coordinates is:  0.395235
 ----------------------------------------------------------------
             Standard Nuclear Orientation (Angstroms)
    I     Atom           X                Y                Z
 ----------------------------------------------------------------
    1      C       1.6023315522    -0.0754380375     0.2598504088
    2      O       1.9257853785     1.0465580629     0.7133271193
    3      O       2.2871143453    -1.1402806431     0.3382969387
    4      C       0.2714111000    -0.3524169688    -0.5875442366
    5      O      -0.4693589661     1.6082682615    -0.7812841822
    6      C       0.4520200977    -1.0472662660    -1.6442044072
    7      O      -1.1589351225    -0.3505336336    -0.0242678643
    8      C      -2.1152989150    -0.8757972253    -0.6605984320
    9      H      -1.5572446511    -0.0087737321     1.5044759157
   10      H      -1.4020229550     1.0453370457     1.8028247523
   11      H      -0.9945068625    -0.6505789474     2.2070616404
   12      C      -2.6366244982    -0.2472817318     1.6075180776
   13      H      -0.8895073722     1.5969244262    -1.7720906053
   14      H       0.4826815901     2.1066976409    -0.7382928595
   15      H      -1.1564884907     2.1380686112    -0.1023324775
 ----------------------------------------------------------------
 Molecular Point Group                 C1    NOp =  1
 Largest Abelian Subgroup              C1    NOp =  1
 Nuclear Repulsion Energy =   434.1778003124 hartrees
 There are       35 alpha and       35 beta electrons
 Requested basis set is 6-31+G(d)
 There are 57 shells and 183 basis functions
 A cutoff of  1.0D-11 yielded   1521 shell pairs
 There are     16267 function pairs
 Smallest overlap matrix eigenvalue = 1.89E-05
 Placing solute cavity origin at the center of mass
 Center of Onsager solute cavity (Angst): (   0.051269,  -0.048326,  -0.041834)
 Solvent multipole matrices computed through 15th order

 Scale SEOQF with 1.000000e-01/1.000000e-01/1.000000e-01

 Standard Electronic Orientation quadrupole field applied
 Guess MOs from SCF MO coefficient file
 Reading MOs from coefficient file
 Reading MOs from coefficient file
 A restricted hybrid HF-DFT SCF calculation will be
 performed using Pulay DIIS extrapolation
 Kirkwood-Onsager solvation model will be applied
 Exchange:     0.2000 Hartree-Fock + 0.0800 Slater + 0.7200 B88
 Correlation:  0.1900 VWN1RPA + 0.8100 LYP
 Using SG-1 standard quadrature grid
 SCF converges when DIIS error is below 1.0E-08
 Kirkwood-Onsager SCRF: 
 Maximum multipole order     = 15
 Solvent dielectric constant = 78.3900
 Cavity radius               = 56.6917 bohr
 Born term (E_born)          = -0.03482849 a.u. = -21.8552 kcal/mol
Geometry optimization detected.  Setting ReadMinima to 0
Setting SaveMinima to 0
 CPU 0.00 s  wall 0.00 s
 CPU 8.14 s  wall 8.14 s
 ---------------------------------------
  Cycle       Energy         DIIS Error
 ---------------------------------------
    1    -494.2100190114      2.72E-03
 CPU 0.00 s  wall 0.00 s
 CPU 6.22 s  wall 6.22 s
    2    -494.2198991722      5.77E-04
 CPU 0.00 s  wall 0.00 s
 CPU 6.25 s  wall 6.25 s
    3    -494.2071998965      1.63E-03
 CPU 0.00 s  wall 0.00 s
 CPU 5.15 s  wall 5.15 s
    4    -494.2190284810      6.75E-04
 CPU 0.00 s  wall 0.00 s
 CPU 5.10 s  wall 5.10 s
    5    -494.2217317189      6.94E-05
 CPU 0.00 s  wall 0.00 s
 CPU 5.03 s  wall 5.03 s
    6    -494.2217457502      6.76E-05
 CPU 0.00 s  wall 0.00 s
 CPU 5.00 s  wall 5.00 s
    7    -494.2217655009      3.60E-05
 CPU 0.00 s  wall 0.00 s
 CPU 4.96 s  wall 4.96 s
    8    -494.2217749640      1.47E-05
 CPU 0.00 s  wall 0.00 s
 CPU 4.94 s  wall 4.94 s
    9    -494.2217773342      1.00E-05
 CPU 0.00 s  wall 0.00 s
 CPU 4.92 s  wall 4.92 s
   10    -494.2217785675      7.83E-06
 CPU 0.00 s  wall 0.00 s
 CPU 4.91 s  wall 4.91 s
   11    -494.2217794175      3.45E-06
 CPU 0.00 s  wall 0.00 s
 CPU 4.89 s  wall 4.89 s
   12    -494.2217795674      1.84E-06
 CPU 0.00 s  wall 0.00 s
 CPU 4.77 s  wall 4.76 s
   13    -494.2217795983      9.99E-07
 CPU 0.00 s  wall 0.00 s
 CPU 4.81 s  wall 4.81 s
   14    -494.2217796109      5.51E-07
 CPU 0.00 s  wall 0.00 s
 CPU 4.77 s  wall 4.77 s
   15    -494.2217796178      1.88E-07
 CPU 0.00 s  wall 0.00 s
 CPU 4.72 s  wall 4.72 s
   16    -494.2217796207      1.39E-07
 CPU 0.00 s  wall 0.00 s
 CPU 4.66 s  wall 4.66 s
   17    -494.2217796217      1.28E-07
 CPU 0.00 s  wall 0.00 s
 CPU 4.59 s  wall 4.59 s
   18    -494.2217796226      4.84E-08
 CPU 0.00 s  wall 0.00 s
 CPU 4.46 s  wall 4.46 s
   19    -494.2217796217      1.77E-08
 CPU 0.00 s  wall 0.00 s
 CPU 4.26 s  wall 4.26 s
   20    -494.2217796217      7.05E-09 Convergence criterion met
 ---------------------------------------
 SCF time:  CPU 250.37 s  wall 249.42 s
 SCF   energy in the final basis set = -494.2217796217
 Total energy in the final basis set = -494.2217796217
 
 --------------------------------------------------------------
 
                    Orbital Energies (a.u.)
 --------------------------------------------------------------
 
 Alpha MOs
 -- Occupied --
-19.047 -19.003 -18.845 -18.820 -10.025 -10.022  -9.944  -9.937
 -9.915  -0.885  -0.859  -0.759  -0.668  -0.504  -0.399  -0.377
 -0.367  -0.345  -0.275  -0.249  -0.200  -0.173  -0.158  -0.134
 -0.121  -0.101  -0.059  -0.020   0.001   0.013   0.021   0.041
  0.054   0.099   0.125
 -- Virtual --
  0.168   0.176   0.187   0.240   0.247   0.250   0.260   0.262
  0.268   0.279   0.284   0.293   0.298   0.312   0.319   0.325
  0.332   0.334   0.337   0.341   0.352   0.368   0.374   0.386
  0.394   0.411   0.419   0.424   0.438   0.453   0.466   0.475
  0.487   0.506   0.520   0.535   0.550   0.559   0.565   0.573
  0.580   0.589   0.592   0.602   0.621   0.646   0.655   0.705
  0.716   0.747   0.758   0.806   0.935   0.952   0.973   0.996
  1.007   1.008   1.035   1.044   1.057   1.063   1.083   1.106
  1.131   1.147   1.181   1.183   1.211   1.222   1.258   1.279
  1.291   1.335   1.379   1.396   1.426   1.436   1.471   1.500
  1.524   1.549   1.562   1.580   1.600   1.621   1.631   1.638
  1.668   1.690   1.702   1.769   1.797   1.806   1.817   1.863
  1.884   1.936   1.954   1.972   1.979   2.018   2.031   2.038
  2.062   2.084   2.119   2.122   2.139   2.154   2.178   2.197
  2.241   2.255   2.281   2.317   2.362   2.395   2.444   2.489
  2.534   2.591   2.603   2.617   2.638   2.670   2.700   2.703
  2.758   2.854   2.952   2.986   3.071   3.120   3.200   3.313
  3.349   3.380   3.451   4.295   4.430   4.466   4.544   4.576
  4.632   4.701   4.741   4.956
 --------------------------------------------------------------
 
          Ground-State Mulliken Net Atomic Charges

     Atom                 Charge (a.u.)
  ----------------------------------------
      1 C                     0.358384
      2 O                    -0.480514
      3 O                    -0.568727
      4 C                    -1.537753
      5 O                    -0.338593
      6 C                    -0.549150
      7 O                     0.411968
      8 C                    -0.028160
      9 H                     0.010627
     10 H                     0.028072
     11 H                     0.003479
     12 C                    -0.575134
     13 H                     0.401961
     14 H                     0.458216
     15 H                     0.405324
  ----------------------------------------
  Sum of atomic charges =    -2.000000

 -----------------------------------------------------------------
                    Cartesian Multipole Moments
 -----------------------------------------------------------------
    Charge (ESU x 10^10)
                -9.6064
    Dipole Moment (Debye)
         X       2.4117      Y       4.0887      Z      -7.0499
       Tot       8.4991
    Quadrupole Moments (Debye-Ang)
        XX    -123.3109     XY       1.8416     YY     -80.6013
        XZ      14.6260     YZ      -9.2427     ZZ    -101.4424
    Octopole Moments (Debye-Ang^2)
       XXX     112.4921    XXY      11.3223    XYY      14.6269
       YYY       1.5159    XXZ     -74.3893    XYZ      -2.7217
       YYZ     -11.4343    XZZ      62.8662    YZZ      14.4525
       ZZZ     -49.2562
    Hexadecapole Moments (Debye-Ang^3)
      XXXX   -1714.7942   XXXY       1.0180   XXYY    -353.7767
      XYYY      21.7344   YYYY    -532.9862   XXXZ     220.4259
      XXYZ     -14.1524   XYYZ      31.4261   YYYZ     -39.0875
      XXZZ    -474.7028   XYZZ      -6.2244   YYZZ    -232.7578
      XZZZ     218.2861   YZZZ     -42.8010   ZZZZ    -835.5118
 -----------------------------------------------------------------
 Calculating analytic gradient of the SCF energy
 CPU 0.00 s  wall 0.00 s
 CPU 8.17 s  wall 8.17 s
 Gradient of SCF Energy
            1           2           3           4           5           6
    1  -0.0060437   0.0163441   0.0022464  -0.0905911  -0.0004695  -0.0116632
    2   0.0336264  -0.0186247  -0.0099988   0.0328761  -0.0844216   0.0042692
    3  -0.0039002   0.0133851  -0.0033669   0.0051851   0.0169107   0.0308037
            7           8           9          10          11          12
    1   0.0552479  -0.0123196   0.0096164   0.0229821   0.0163618  -0.0045012
    2   0.0479993  -0.0239083  -0.0025050  -0.0310392   0.0269418  -0.0068656
    3   0.0718364  -0.0590706   0.0082819   0.0020065  -0.0198588  -0.0372442
           13          14          15
    1  -0.0153047   0.0303093  -0.0122149
    2  -0.0015533   0.0215263   0.0116775
    3  -0.0221723  -0.0030707   0.0002742
 Max gradient component =       9.059E-02
 RMS gradient           =       3.039E-02
 Gradient time:  CPU 63.15 s  wall 63.17 s
 Geometry Optimization Parameters
   NAtoms,    NIC,     NZ,  NCons,   NDum,   NFix, NCnnct, MaxDiis
       15     170       0       0       0       0       0       0

 Cartesian Hessian Update
 Hessian Updated using Powell/Murtagh-Sargent Update
  Mixing factors:     0.031732 Powell
                      0.968268 Murtagh-Sargent


** GEOMETRY OPTIMIZATION IN DELOCALIZED INTERNAL COORDINATES **
   Searching for a Transition State

   Optimization Cycle:   3

                       Coordinates (Angstroms)
     ATOM                X               Y               Z
      1  C         1.6023315522   -0.0754380375    0.2598504088
      2  O         1.9257853785    1.0465580629    0.7133271193
      3  O         2.2871143453   -1.1402806431    0.3382969387
      4  C         0.2714111000   -0.3524169688   -0.5875442366
      5  O        -0.4693589661    1.6082682615   -0.7812841822
      6  C         0.4520200977   -1.0472662660   -1.6442044072
      7  O        -1.1589351225   -0.3505336336   -0.0242678643
      8  C        -2.1152989150   -0.8757972253   -0.6605984320
      9  H        -1.5572446511   -0.0087737321    1.5044759157
     10  H        -1.4020229550    1.0453370457    1.8028247523
     11  H        -0.9945068625   -0.6505789474    2.2070616404
     12  C        -2.6366244982   -0.2472817318    1.6075180776
     13  H        -0.8895073722    1.5969244262   -1.7720906053
     14  H         0.4826815901    2.1066976409   -0.7382928595
     15  H        -1.1564884907    2.1380686112   -0.1023324775
   Point Group: c1    Number of degrees of freedom:    39


   Energy is   -494.221779622

 Hessian Updated using Powell/Murtagh-Sargent Update
  Mixing factors:     0.944012 Powell
                      0.055988 Murtagh-Sargent

 39 Hessian modes will be used to form the next step
  Hessian Eigenvalues:
    -0.013829    0.004060    0.005174    0.007885    0.018203    0.021770
     0.023721    0.024323    0.026735    0.029048    0.035767    0.036981
     0.043694    0.046097    0.059059    0.061813    0.076229    0.077238
     0.079618    0.084265    0.090431    0.094395    0.101429    0.102639
     0.112590    0.127522    0.140054    0.190581    0.227572    0.239833
     0.251293    0.273609    0.306156    0.341639    0.348032    0.757990
     0.764415    0.788911    0.825168

 Transition State Search - Taking P-RFO Step
 Searching for Lamda that Maximizes Along the Lowest mode
 Value Taken    Lamda =   0.02969576
 Searching for Lamda that Minimizes Along All other modes
 Value Taken    Lamda =  -0.10981843
 Calculated Step too Large.  Step scaled by  0.264890
 Step Taken.  Stepsize is  0.300000

                             Maximum     Tolerance    Cnvgd?
         Gradient           0.069410      0.000300      NO
         Displacement       0.113007      0.001200      NO
         Energy change     -0.020682      0.000001      NO


 New Cartesian Coordinates Obtained by Inverse Iteration

 Displacement from previous Coordinates is:  0.372519
 ----------------------------------------------------------------
             Standard Nuclear Orientation (Angstroms)
    I     Atom           X                Y                Z
 ----------------------------------------------------------------
    1      C       1.6127067165    -0.1055297635     0.2676115741
    2      O       1.8835786401     1.0146382784     0.7568769074
    3      O       2.3761089804    -1.1169765075     0.2289326557
    4      C       0.3003592050    -0.3715032878    -0.5995470264
    5      O      -0.4615936531     1.6179625600    -0.7875464915
    6      C       0.4884890847    -1.0728765491    -1.6556327746
    7      O      -1.1590683137    -0.3585717914    -0.0315382491
    8      C      -2.1246991262    -0.8771485331    -0.6362040681
    9      H      -1.5866971958     0.0025236382     1.5238235230
   10      H      -1.4381727492     1.0676348839     1.8068961966
   11      H      -1.0298760579    -0.6367222218     2.2426136067
   12      C      -2.6656598908    -0.2344929225     1.6330548471
   13      H      -0.8733829890     1.6094058240    -1.7733988885
   14      H       0.4747996568     2.1152792276    -0.7418884773
   15      H      -1.1555360771     2.1398640273    -0.1113135469
 ----------------------------------------------------------------
 Molecular Point Group                 C1    NOp =  1
 Largest Abelian Subgroup              C1    NOp =  1
 Nuclear Repulsion Energy =   431.9893486415 hartrees
 There are       35 alpha and       35 beta electrons
 Requested basis set is 6-31+G(d)
 There are 57 shells and 183 basis functions
 A cutoff of  1.0D-11 yielded   1518 shell pairs
 There are     16215 function pairs
 Smallest overlap matrix eigenvalue = 1.90E-05
 Placing solute cavity origin at the center of mass
 Center of Onsager solute cavity (Angst): (   0.060699,  -0.054484,  -0.048083)
 Solvent multipole matrices computed through 15th order

 Scale SEOQF with 1.000000e-01/1.000000e-01/1.000000e-01

 Standard Electronic Orientation quadrupole field applied
 Guess MOs from SCF MO coefficient file
 Reading MOs from coefficient file
 Reading MOs from coefficient file
 A restricted hybrid HF-DFT SCF calculation will be
 performed using Pulay DIIS extrapolation
 Kirkwood-Onsager solvation model will be applied
 Exchange:     0.2000 Hartree-Fock + 0.0800 Slater + 0.7200 B88
 Correlation:  0.1900 VWN1RPA + 0.8100 LYP
 Using SG-1 standard quadrature grid
 SCF converges when DIIS error is below 1.0E-08
 Kirkwood-Onsager SCRF: 
 Maximum multipole order     = 15
 Solvent dielectric constant = 78.3900
 Cavity radius               = 56.6917 bohr
 Born term (E_born)          = -0.03482849 a.u. = -21.8552 kcal/mol
Geometry optimization detected.  Setting ReadMinima to 0
Setting SaveMinima to 0
 CPU 0.00 s  wall 0.00 s
 CPU 6.77 s  wall 6.77 s
 ---------------------------------------
  Cycle       Energy         DIIS Error
 ---------------------------------------
    1    -494.2381335342      2.93E-03
 CPU 0.00 s  wall 0.00 s
 CPU 5.11 s  wall 5.11 s
    2    -494.2390218576      6.87E-04
 CPU 0.00 s  wall 0.00 s
 CPU 5.14 s  wall 5.14 s
    3    -494.2252906586      1.67E-03
 CPU 0.00 s  wall 0.00 s
 CPU 5.13 s  wall 5.13 s
    4    -494.2389719636      6.92E-04
 CPU 0.00 s  wall 0.00 s
 CPU 5.09 s  wall 5.09 s
    5    -494.2417710313      1.04E-04
 CPU 0.00 s  wall 0.00 s
 CPU 5.03 s  wall 5.03 s
    6    -494.2417800366      1.11E-04
 CPU 0.00 s  wall 0.00 s
 CPU 5.01 s  wall 5.01 s
    7    -494.2418403505      4.15E-05
 CPU 0.00 s  wall 0.00 s
 CPU 4.95 s  wall 4.95 s
    8    -494.2418526130      2.08E-05
 CPU 0.00 s  wall 0.00 s
 CPU 4.91 s  wall 4.91 s
    9    -494.2418558710      1.05E-05
 CPU 0.00 s  wall 0.00 s
 CPU 4.90 s  wall 4.90 s
   10    -494.2418567325      1.08E-05
 CPU 0.00 s  wall 0.00 s
 CPU 4.90 s  wall 4.90 s
   11    -494.2418576931      3.59E-06
 CPU 0.00 s  wall 0.00 s
 CPU 4.85 s  wall 4.85 s
   12    -494.2418578224      1.80E-06
 CPU 0.00 s  wall 0.00 s
 CPU 4.77 s  wall 4.77 s
   13    -494.2418578519      7.64E-07
 CPU 0.00 s  wall 0.00 s
 CPU 4.71 s  wall 4.71 s
   14    -494.2418578595      3.91E-07
 CPU 0.00 s  wall 0.00 s
 CPU 4.73 s  wall 4.73 s
   15    -494.2418578642      2.08E-07
 CPU 0.00 s  wall 0.00 s
 CPU 4.68 s  wall 4.68 s
   16    -494.2418578668      1.30E-07
 CPU 0.00 s  wall 0.00 s
 CPU 4.58 s  wall 4.58 s
   17    -494.2418578668      7.82E-08
 CPU 0.00 s  wall 0.00 s
 CPU 4.55 s  wall 4.55 s
   18    -494.2418578665      2.44E-08
 CPU 0.00 s  wall 0.00 s
 CPU 4.36 s  wall 4.36 s
   19    -494.2418578663      7.65E-09 Convergence criterion met
 ---------------------------------------
 SCF time:  CPU 226.10 s  wall 224.86 s
 SCF   energy in the final basis set = -494.2418578663
 Total energy in the final basis set = -494.2418578663
 
 --------------------------------------------------------------
 
                    Orbital Energies (a.u.)
 --------------------------------------------------------------
 
 Alpha MOs
 -- Occupied --
-19.050 -19.001 -18.840 -18.818 -10.025 -10.022  -9.946  -9.932
 -9.911  -0.886  -0.863  -0.756  -0.666  -0.498  -0.395  -0.376
 -0.371  -0.349  -0.272  -0.247  -0.200  -0.171  -0.160  -0.132
 -0.120  -0.104  -0.059  -0.018   0.004   0.016   0.026   0.038
  0.054   0.096   0.124
 -- Virtual --
  0.171   0.175   0.188   0.238   0.248   0.250   0.259   0.262
  0.268   0.280   0.284   0.291   0.298   0.311   0.320   0.323
  0.331   0.333   0.338   0.340   0.350   0.366   0.375   0.386
  0.394   0.411   0.418   0.424   0.434   0.452   0.465   0.477
  0.486   0.503   0.525   0.535   0.550   0.558   0.564   0.574
  0.581   0.588   0.593   0.603   0.624   0.644   0.655   0.702
  0.712   0.745   0.760   0.818   0.934   0.953   0.975   0.994
  1.003   1.009   1.037   1.046   1.062   1.065   1.089   1.109
  1.131   1.145   1.177   1.183   1.208   1.226   1.258   1.283
  1.290   1.328   1.371   1.394   1.421   1.431   1.472   1.504
  1.523   1.546   1.559   1.579   1.600   1.622   1.631   1.636
  1.670   1.692   1.700   1.772   1.789   1.807   1.825   1.864
  1.872   1.931   1.951   1.959   1.980   2.014   2.026   2.032
  2.054   2.084   2.114   2.118   2.135   2.155   2.181   2.192
  2.236   2.255   2.277   2.303   2.347   2.391   2.445   2.470
  2.532   2.579   2.605   2.625   2.647   2.667   2.700   2.718
  2.755   2.850   2.946   2.988   3.078   3.114   3.199   3.313
  3.362   3.379   3.453   4.279   4.424   4.458   4.541   4.571
  4.629   4.702   4.739   4.950
 --------------------------------------------------------------
 
          Ground-State Mulliken Net Atomic Charges

     Atom                 Charge (a.u.)
  ----------------------------------------
      1 C                     0.407188
      2 O                    -0.481118
      3 O                    -0.580671
      4 C                    -1.523943
      5 O                    -0.377575
      6 C                    -0.591079
      7 O                     0.411430
      8 C                    -0.010485
      9 H                     0.022626
     10 H                     0.021598
     11 H                     0.001120
     12 C                    -0.589007
     13 H                     0.411620
     14 H                     0.471138
     15 H                     0.407159
  ----------------------------------------
  Sum of atomic charges =    -2.000000

 -----------------------------------------------------------------
                    Cartesian Multipole Moments
 -----------------------------------------------------------------
    Charge (ESU x 10^10)
                -9.6064
    Dipole Moment (Debye)
         X       2.1317      Y       4.1734      Z      -6.9782
       Tot       8.4057
    Quadrupole Moments (Debye-Ang)
        XX    -124.4910     XY       2.5398     YY     -79.7580
        XZ      16.1780     YZ     -10.1975     ZZ    -102.0877
    Octopole Moments (Debye-Ang^2)
       XXX     111.4307    XXY      12.1519    XYY      15.0329
       YYY       2.5002    XXZ     -77.0239    XYZ      -3.6201
       YYZ     -11.4244    XZZ      64.8191    YZZ      14.1363
       ZZZ     -51.6434
    Hexadecapole Moments (Debye-Ang^3)
      XXXX   -1758.8151   XXXY      14.8335   XXYY    -356.2025
      XYYY      29.9234   YYYY    -528.8972   XXXZ     246.4159
      XXYZ     -19.1434   XYYZ      36.6423   YYYZ     -45.7423
      XXZZ    -489.1523   XYZZ      -3.2846   YYZZ    -234.0118
      XZZZ     238.9552   YZZZ     -49.8949   ZZZZ    -854.5463
 -----------------------------------------------------------------
 Calculating analytic gradient of the SCF energy
 CPU 0.00 s  wall 0.00 s
 CPU 8.10 s  wall 8.10 s
 Gradient of SCF Energy
            1           2           3           4           5           6
    1  -0.0083747   0.0146087   0.0030672  -0.0883091   0.0023459  -0.0074526
    2   0.0231556  -0.0166502  -0.0062506   0.0377685  -0.0764554   0.0000317
    3   0.0108362   0.0056037  -0.0092601   0.0080191   0.0144965   0.0256828
            7           8           9          10          11          12
    1   0.0586832  -0.0175784   0.0092754   0.0244938   0.0182849  -0.0091080
    2   0.0460654  -0.0255990  -0.0015666  -0.0287942   0.0264027  -0.0082684
    3   0.0683358  -0.0590432   0.0119186   0.0033962  -0.0187558  -0.0381024
           13          14          15
    1  -0.0145872   0.0266719  -0.0120210
    2  -0.0006856   0.0199719   0.0108741
    3  -0.0202735  -0.0028143  -0.0000399
 Max gradient component =       8.831E-02
 RMS gradient           =       2.936E-02
 Gradient time:  CPU 62.17 s  wall 62.18 s
 Geometry Optimization Parameters
   NAtoms,    NIC,     NZ,  NCons,   NDum,   NFix, NCnnct, MaxDiis
       15     170       0       0       0       0       0       0

 Cartesian Hessian Update
 Hessian Updated using Powell/Murtagh-Sargent Update
  Mixing factors:     0.883871 Powell
                      0.116129 Murtagh-Sargent


** GEOMETRY OPTIMIZATION IN DELOCALIZED INTERNAL COORDINATES **
   Searching for a Transition State

   Optimization Cycle:   4

                       Coordinates (Angstroms)
     ATOM                X               Y               Z
      1  C         1.6127067165   -0.1055297635    0.2676115741
      2  O         1.8835786401    1.0146382784    0.7568769074
      3  O         2.3761089804   -1.1169765075    0.2289326557
      4  C         0.3003592050   -0.3715032878   -0.5995470264
      5  O        -0.4615936531    1.6179625600   -0.7875464915
      6  C         0.4884890847   -1.0728765491   -1.6556327746
      7  O        -1.1590683137   -0.3585717914   -0.0315382491
      8  C        -2.1246991262   -0.8771485331   -0.6362040681
      9  H        -1.5866971958    0.0025236382    1.5238235230
     10  H        -1.4381727492    1.0676348839    1.8068961966
     11  H        -1.0298760579   -0.6367222218    2.2426136067
     12  C        -2.6656598908   -0.2344929225    1.6330548471
     13  H        -0.8733829890    1.6094058240   -1.7733988885
     14  H         0.4747996568    2.1152792276   -0.7418884773
     15  H        -1.1555360771    2.1398640273   -0.1113135469
   Point Group: c1    Number of degrees of freedom:    39


   Energy is   -494.241857866

 Hessian Updated using Powell/Murtagh-Sargent Update
  Mixing factors:     0.999977 Powell
                      0.000023 Murtagh-Sargent

 39 Hessian modes will be used to form the next step
  Hessian Eigenvalues:
    -0.018489    0.004767    0.006938    0.014385    0.020151    0.023679
     0.023727    0.025852    0.028958    0.030558    0.035852    0.037842
     0.043306    0.046670    0.048827    0.061468    0.076631    0.077617
     0.080476    0.083423    0.089688    0.094508    0.101562    0.103067
     0.112444    0.128401    0.140154    0.190898    0.226740    0.235682
     0.251977    0.272774    0.306000    0.341161    0.347948    0.756899
     0.764533    0.789169    0.825209

 Transition State Search - Taking P-RFO Step
 Searching for Lamda that Maximizes Along the Lowest mode
 Value Taken    Lamda =   0.00035693
 Searching for Lamda that Minimizes Along All other modes
 Value Taken    Lamda =  -0.11664409
 Calculated Step too Large.  Step scaled by  0.350536
 Step Taken.  Stepsize is  0.300000

                             Maximum     Tolerance    Cnvgd?
         Gradient           0.062400      0.000300      NO
         Displacement       0.135929      0.001200      NO
         Energy change     -0.020078      0.000001      NO


 New Cartesian Coordinates Obtained by Inverse Iteration

 Displacement from previous Coordinates is:  0.465894
 ----------------------------------------------------------------
             Standard Nuclear Orientation (Angstroms)
    I     Atom           X                Y                Z
 ----------------------------------------------------------------
    1      C       1.6338215010    -0.1101867550     0.2240495926
    2      O       1.8283280750     1.0506616288     0.6646205880
    3      O       2.4437705875    -1.0801825058     0.2469635317
    4      C       0.3414095081    -0.4101656413    -0.6462658009
    5      O      -0.4376615366     1.6185271785    -0.7780133124
    6      C       0.5378880979    -1.0854817926    -1.7209661215
    7      O      -1.1694693379    -0.3852236742    -0.0489933960
    8      C      -2.1483599737    -0.8740460344    -0.6055287425
    9      H      -1.6327001471     0.0002429747     1.5551134493
   10      H      -1.4621833838     1.0767693760     1.8270550648
   11      H      -1.1064933683    -0.6563516749     2.2963352270
   12      C      -2.7135892552    -0.2019863521     1.6716157402
   13      H      -0.8417839103     1.6377272683    -1.7491871565
   14      H       0.4903994579     2.0838646369    -0.7209184923
   15      H      -1.1220200838     2.1293182298    -0.0931403832
 ----------------------------------------------------------------
 Molecular Point Group                 C1    NOp =  1
 Largest Abelian Subgroup              C1    NOp =  1
 Nuclear Repulsion Energy =   429.3965306835 hartrees
 There are       35 alpha and       35 beta electrons
 Requested basis set is 6-31+G(d)
 There are 57 shells and 183 basis functions
 A cutoff of  1.0D-11 yielded   1515 shell pairs
 There are     16201 function pairs
 Smallest overlap matrix eigenvalue = 1.94E-05
 Placing solute cavity origin at the center of mass
 Center of Onsager solute cavity (Angst): (   0.067069,  -0.050815,  -0.064854)
 Solvent multipole matrices computed through 15th order

 Scale SEOQF with 1.000000e-01/1.000000e-01/1.000000e-01

 Standard Electronic Orientation quadrupole field applied
 Guess MOs from SCF MO coefficient file
 Reading MOs from coefficient file
 Reading MOs from coefficient file
 A restricted hybrid HF-DFT SCF calculation will be
 performed using Pulay DIIS extrapolation
 Kirkwood-Onsager solvation model will be applied
 Exchange:     0.2000 Hartree-Fock + 0.0800 Slater + 0.7200 B88
 Correlation:  0.1900 VWN1RPA + 0.8100 LYP
 Using SG-1 standard quadrature grid
 SCF converges when DIIS error is below 1.0E-08
 Kirkwood-Onsager SCRF: 
 Maximum multipole order     = 15
 Solvent dielectric constant = 78.3900
 Cavity radius               = 56.6917 bohr
 Born term (E_born)          = -0.03482849 a.u. = -21.8552 kcal/mol
Geometry optimization detected.  Setting ReadMinima to 0
Setting SaveMinima to 0
 CPU 0.00 s  wall 0.00 s
 Inaccurate integrated density:
   Number of electrons =    70
   Numerical integral  =    70.090345906997
   Relative error      =     0.1290655814 %
 CPU 6.71 s  wall 6.71 s
 ---------------------------------------
  Cycle       Energy         DIIS Error
 ---------------------------------------
    1    -494.2841878147      3.58E-03
 CPU 0.00 s  wall 0.00 s
 CPU 5.07 s  wall 5.07 s
    2    -494.2750833021      1.07E-03
 CPU 0.00 s  wall 0.00 s
 CPU 5.10 s  wall 5.10 s
    3    -494.2554242803      2.28E-03
 CPU 0.00 s  wall 0.00 s
 CPU 5.07 s  wall 5.07 s
    4    -494.2798011326      5.44E-04
 CPU 0.00 s  wall 0.00 s
 CPU 5.03 s  wall 5.03 s
    5    -494.2812099374      2.72E-04
 CPU 0.00 s  wall 0.00 s
 CPU 4.97 s  wall 4.97 s
    6    -494.2815482366      1.52E-04
 CPU 0.00 s  wall 0.00 s
 CPU 4.93 s  wall 4.93 s
    7    -494.2816581611      4.07E-05
 CPU 0.00 s  wall 0.00 s
 CPU 4.91 s  wall 4.91 s
    8    -494.2816595360      4.67E-05
 CPU 0.00 s  wall 0.00 s
 CPU 4.90 s  wall 4.90 s
    9    -494.2816712278      1.49E-05
 CPU 0.00 s  wall 0.00 s
 CPU 4.86 s  wall 4.86 s
   10    -494.2816724382      9.06E-06
 CPU 0.00 s  wall 0.00 s
 CPU 4.83 s  wall 4.83 s
   11    -494.2816729843      2.65E-06
 CPU 0.00 s  wall 0.00 s
 CPU 4.75 s  wall 4.75 s
   12    -494.2816730383      1.26E-06
 CPU 0.00 s  wall 0.00 s
 CPU 4.69 s  wall 4.69 s
   13    -494.2816730466      6.53E-07
 CPU 0.00 s  wall 0.00 s
 CPU 4.64 s  wall 4.64 s
   14    -494.2816730504      2.08E-07
 CPU 0.00 s  wall 0.00 s
 CPU 4.61 s  wall 4.61 s
   15    -494.2816730513      1.08E-07
 CPU 0.00 s  wall 0.00 s
 CPU 4.54 s  wall 4.54 s
   16    -494.2816730521      7.05E-08
 CPU 0.00 s  wall 0.00 s
 CPU 4.41 s  wall 4.41 s
   17    -494.2816730518      3.80E-08
 CPU 0.00 s  wall 0.00 s
 CPU 4.37 s  wall 4.37 s
   18    -494.2816730518      1.54E-08
 CPU 0.00 s  wall 0.00 s
 CPU 4.14 s  wall 4.14 s
   19    -494.2816730512      4.49E-09 Convergence criterion met
 ---------------------------------------
 SCF time:  CPU 220.76 s  wall 219.62 s
 SCF   energy in the final basis set = -494.2816730512
 Total energy in the final basis set = -494.2816730512
 
 --------------------------------------------------------------
 
                    Orbital Energies (a.u.)
 --------------------------------------------------------------
 
 Alpha MOs
 -- Occupied --
-19.058 -18.997 -18.835 -18.814 -10.026 -10.017  -9.947  -9.916
 -9.895  -0.896  -0.867  -0.751  -0.662  -0.482  -0.391  -0.388
 -0.369  -0.355  -0.265  -0.246  -0.200  -0.172  -0.162  -0.128
 -0.117  -0.105  -0.057  -0.009   0.009   0.021   0.031   0.035
  0.057   0.091   0.120
 -- Virtual --
  0.173   0.180   0.193   0.236   0.249   0.252   0.259   0.262
  0.268   0.281   0.283   0.293   0.298   0.312   0.322   0.325
  0.330   0.333   0.339   0.340   0.347   0.362   0.377   0.389
  0.396   0.410   0.417   0.426   0.432   0.454   0.462   0.477
  0.487   0.506   0.527   0.535   0.550   0.560   0.566   0.575
  0.579   0.592   0.594   0.603   0.628   0.650   0.661   0.703
  0.722   0.751   0.760   0.824   0.936   0.962   0.980   0.991
  1.002   1.011   1.036   1.053   1.068   1.073   1.095   1.112
  1.133   1.144   1.173   1.196   1.206   1.234   1.258   1.277
  1.290   1.322   1.369   1.392   1.414   1.426   1.465   1.507
  1.519   1.540   1.559   1.591   1.603   1.620   1.638   1.643
  1.668   1.690   1.697   1.773   1.791   1.810   1.830   1.862
  1.871   1.923   1.935   1.950   1.975   2.014   2.025   2.030
  2.041   2.085   2.098   2.121   2.144   2.157   2.184   2.194
  2.226   2.251   2.268   2.282   2.341   2.383   2.445   2.456
  2.535   2.562   2.612   2.642   2.662   2.679   2.707   2.735
  2.773   2.856   2.935   2.992   3.082   3.126   3.209   3.318
  3.349   3.379   3.454   4.252   4.417   4.464   4.539   4.567
  4.630   4.700   4.739   4.947
 --------------------------------------------------------------
 
          Ground-State Mulliken Net Atomic Charges

     Atom                 Charge (a.u.)
  ----------------------------------------
      1 C                     0.517854
      2 O                    -0.522428
      3 O                    -0.582637
      4 C                    -1.438355
      5 O                    -0.511661
      6 C                    -0.620762
      7 O                     0.375130
      8 C                     0.020076
      9 H                     0.044553
     10 H                    -0.005541
     11 H                    -0.006843
     12 C                    -0.639312
     13 H                     0.445497
     14 H                     0.502457
     15 H                     0.421971
  ----------------------------------------
  Sum of atomic charges =    -2.000000

 -----------------------------------------------------------------
                    Cartesian Multipole Moments
 -----------------------------------------------------------------
    Charge (ESU x 10^10)
                -9.6064
    Dipole Moment (Debye)
         X       1.5377      Y       4.9506      Z      -7.0000
       Tot       8.7105
    Quadrupole Moments (Debye-Ang)
        XX    -125.2418     XY       2.4865     YY     -77.7469
        XZ      18.6796     YZ     -11.7473     ZZ    -103.9488
    Octopole Moments (Debye-Ang^2)
       XXX     110.3120    XXY      13.1251    XYY      12.3838
       YYY       9.6037    XXZ     -82.8840    XYZ      -2.2245
       YYZ     -12.7526    XZZ      67.3801    YZZ      17.6472
       ZZZ     -54.5700
    Hexadecapole Moments (Debye-Ang^3)
      XXXX   -1803.9073   XXXY      19.5599   XXYY    -357.2058
      XYYY      27.7207   YYYY    -509.9013   XXXZ     283.4445
      XXYZ     -24.3572   XYYZ      46.2419   YYYZ     -56.4944
      XXZZ    -511.6366   XYZZ       0.6032   YYZZ    -235.3928
      XZZZ     279.3898   YZZZ     -64.3477   ZZZZ    -900.9672
 -----------------------------------------------------------------
 Calculating analytic gradient of the SCF energy
 CPU 0.00 s  wall 0.00 s
 CPU 8.02 s  wall 8.02 s
 Gradient of SCF Energy
            1           2           3           4           5           6
    1  -0.0018337   0.0081816   0.0047139  -0.1011451   0.0135646   0.0003175
    2   0.0213848  -0.0208206  -0.0073157   0.0421715  -0.0665157  -0.0060758
    3   0.0125006   0.0034638  -0.0107475   0.0232117   0.0123207   0.0186423
            7           8           9          10          11          12
    1   0.0761541  -0.0252155   0.0072681   0.0247327   0.0223291  -0.0168009
    2   0.0421424  -0.0238504   0.0009384  -0.0272316   0.0232685  -0.0096312
    3   0.0530767  -0.0513482   0.0202875   0.0028424  -0.0186100  -0.0405170
           13          14          15
    1  -0.0146633   0.0156211  -0.0132240
    2   0.0013337   0.0188054   0.0113963
    3  -0.0200579  -0.0062345   0.0011695
 Max gradient component =       1.011E-01
 RMS gradient           =       2.983E-02
 Gradient time:  CPU 61.69 s  wall 61.70 s
 Geometry Optimization Parameters
   NAtoms,    NIC,     NZ,  NCons,   NDum,   NFix, NCnnct, MaxDiis
       15     170       0       0       0       0       0       0

 Cartesian Hessian Update
 Hessian Updated using Powell/Murtagh-Sargent Update
  Mixing factors:     0.858374 Powell
                      0.141626 Murtagh-Sargent


** GEOMETRY OPTIMIZATION IN DELOCALIZED INTERNAL COORDINATES **
   Searching for a Transition State

   Optimization Cycle:   5

                       Coordinates (Angstroms)
     ATOM                X               Y               Z
      1  C         1.6338215010   -0.1101867550    0.2240495926
      2  O         1.8283280750    1.0506616288    0.6646205880
      3  O         2.4437705875   -1.0801825058    0.2469635317
      4  C         0.3414095081   -0.4101656413   -0.6462658009
      5  O        -0.4376615366    1.6185271785   -0.7780133124
      6  C         0.5378880979   -1.0854817926   -1.7209661215
      7  O        -1.1694693379   -0.3852236742   -0.0489933960
      8  C        -2.1483599737   -0.8740460344   -0.6055287425
      9  H        -1.6327001471    0.0002429747    1.5551134493
     10  H        -1.4621833838    1.0767693760    1.8270550648
     11  H        -1.1064933683   -0.6563516749    2.2963352270
     12  C        -2.7135892552   -0.2019863521    1.6716157402
     13  H        -0.8417839103    1.6377272683   -1.7491871565
     14  H         0.4903994579    2.0838646369   -0.7209184923
     15  H        -1.1220200838    2.1293182298   -0.0931403832
   Point Group: c1    Number of degrees of freedom:    39


   Energy is   -494.281673051

 Hessian Updated using Powell/Murtagh-Sargent Update
  Mixing factors:     0.950400 Powell
                      0.049600 Murtagh-Sargent

 39 Hessian modes will be used to form the next step
  Hessian Eigenvalues:
    -0.032697   -0.002053    0.004949    0.008142    0.019405    0.023722
     0.024790    0.025201    0.029028    0.029771    0.034330    0.039272
     0.039614    0.044070    0.047782    0.063214    0.074958    0.076882
     0.079612    0.083944    0.089525    0.094512    0.102027    0.106377
     0.112399    0.133799    0.141573    0.191762    0.220359    0.231722
     0.251961    0.272409    0.305832    0.342886    0.347832    0.751068
     0.764437    0.789673    0.824079
**WARNING** Hessian does not have the Desired Local Structure

 Transition State Search - Taking P-RFO Step
 Searching for Lamda that Maximizes Along the Lowest mode
 Value Taken    Lamda =   0.05496758
 Searching for Lamda that Minimizes Along All other modes
 Value Taken    Lamda =  -0.10779747
 Calculated Step too Large.  Step scaled by  0.244216
 Step Taken.  Stepsize is  0.300000

                             Maximum     Tolerance    Cnvgd?
         Gradient           0.061975      0.000300      NO
         Displacement       0.122296      0.001200      NO
         Energy change     -0.039815      0.000001      NO


 New Cartesian Coordinates Obtained by Inverse Iteration

 Displacement from previous Coordinates is:  0.374863
 ----------------------------------------------------------------
             Standard Nuclear Orientation (Angstroms)
    I     Atom           X                Y                Z
 ----------------------------------------------------------------
    1      C       1.6534132062    -0.1327123324     0.2123388204
    2      O       1.7736343426     0.9802151847     0.7877000380
    3      O       2.4916351311    -1.0788355327     0.1960491399
    4      C       0.3721766425    -0.4122110107    -0.6747621482
    5      O      -0.4423112130     1.6318790350    -0.7986478961
    6      C       0.5594087356    -1.0935766240    -1.7496735247
    7      O      -1.1629970404    -0.3837278952    -0.0556244738
    8      C      -2.1457916932    -0.8686100258    -0.5732729231
    9      H      -1.6402451820     0.0109925776     1.5693662656
   10      H      -1.4808828333     1.0959285007     1.8237698330
   11      H      -1.1077071087    -0.6406941383     2.3155771714
   12      C      -2.7167493219    -0.1987696394     1.6987002624
   13      H      -0.8513725839     1.6431555793    -1.7594906406
   14      H       0.4697742453     2.1071254568    -0.7570413822
   15      H      -1.1306290963     2.1333277270    -0.1122487538
 ----------------------------------------------------------------
 Molecular Point Group                 C1    NOp =  1
 Largest Abelian Subgroup              C1    NOp =  1
 Nuclear Repulsion Energy =   427.5444873542 hartrees
 There are       35 alpha and       35 beta electrons
 Requested basis set is 6-31+G(d)
 There are 57 shells and 183 basis functions
 A cutoff of  1.0D-11 yielded   1513 shell pairs
 There are     16191 function pairs
 Smallest overlap matrix eigenvalue = 1.89E-05
 Placing solute cavity origin at the center of mass
 Center of Onsager solute cavity (Angst): (   0.072518,  -0.059098,  -0.060488)
 Solvent multipole matrices computed through 15th order

 Scale SEOQF with 1.000000e-01/1.000000e-01/1.000000e-01

 Standard Electronic Orientation quadrupole field applied
 Guess MOs from SCF MO coefficient file
 Reading MOs from coefficient file
 Reading MOs from coefficient file
 A restricted hybrid HF-DFT SCF calculation will be
 performed using Pulay DIIS extrapolation
 Kirkwood-Onsager solvation model will be applied
 Exchange:     0.2000 Hartree-Fock + 0.0800 Slater + 0.7200 B88
 Correlation:  0.1900 VWN1RPA + 0.8100 LYP
 Using SG-1 standard quadrature grid
 SCF converges when DIIS error is below 1.0E-08
 Kirkwood-Onsager SCRF: 
 Maximum multipole order     = 15
 Solvent dielectric constant = 78.3900
 Cavity radius               = 56.6917 bohr
 Born term (E_born)          = -0.03482849 a.u. = -21.8552 kcal/mol
Geometry optimization detected.  Setting ReadMinima to 0
Setting SaveMinima to 0
 CPU 0.00 s  wall 0.00 s
 CPU 6.69 s  wall 6.69 s
 ---------------------------------------
  Cycle       Energy         DIIS Error
 ---------------------------------------
    1    -494.2956837505      3.13E-03
 CPU 0.00 s  wall 0.00 s
 CPU 5.08 s  wall 5.08 s
    2    -494.2909636421      7.38E-04
 CPU 0.00 s  wall 0.00 s
 CPU 5.10 s  wall 5.10 s
    3    -494.2793619705      1.69E-03
 CPU 0.00 s  wall 0.00 s
 CPU 5.08 s  wall 5.08 s
    4    -494.2932425867      3.45E-04
 CPU 0.00 s  wall 0.00 s
 CPU 5.03 s  wall 5.03 s
    5    -494.2938082380      1.23E-04
 CPU 0.00 s  wall 0.00 s
 CPU 4.98 s  wall 4.98 s
    6    -494.2938763269      5.61E-05
 CPU 0.00 s  wall 0.00 s
 CPU 4.93 s  wall 4.93 s
    7    -494.2938873002      2.61E-05
 CPU 0.00 s  wall 0.00 s
 CPU 4.88 s  wall 4.88 s
    8    -494.2938891486      1.98E-05
 CPU 0.00 s  wall 0.00 s
 CPU 4.85 s  wall 4.85 s
    9    -494.2938913597      9.07E-06
 CPU 0.00 s  wall 0.00 s
 CPU 4.81 s  wall 4.81 s
   10    -494.2938918288      3.26E-06
 CPU 0.00 s  wall 0.00 s
 CPU 4.75 s  wall 4.75 s
   11    -494.2938919050      2.13E-06
 CPU 0.00 s  wall 0.00 s
 CPU 4.72 s  wall 4.72 s
   12    -494.2938919409      8.41E-07
 CPU 0.00 s  wall 0.00 s
 CPU 4.65 s  wall 4.65 s
   13    -494.2938919463      4.32E-07
 CPU 0.00 s  wall 0.00 s
 CPU 4.61 s  wall 4.61 s
   14    -494.2938919471      1.07E-07
 CPU 0.00 s  wall 0.00 s
 CPU 4.55 s  wall 4.55 s
   15    -494.2938919470      4.24E-08
 CPU 0.00 s  wall 0.00 s
 CPU 4.44 s  wall 4.44 s
   16    -494.2938919471      3.05E-08
 CPU 0.00 s  wall 0.00 s
 CPU 4.32 s  wall 4.32 s
   17    -494.2938919472      8.89E-09 Convergence criterion met
 ---------------------------------------
 SCF time:  CPU 197.00 s  wall 196.24 s
 SCF   energy in the final basis set = -494.2938919472
 Total energy in the final basis set = -494.2938919472
 
 --------------------------------------------------------------
 
                    Orbital Energies (a.u.)
 --------------------------------------------------------------
 
 Alpha MOs
 -- Occupied --
-19.063 -18.995 -18.829 -18.811 -10.027 -10.013  -9.950  -9.911
 -9.892  -0.902  -0.872  -0.745  -0.657  -0.477  -0.396  -0.390
 -0.372  -0.354  -0.262  -0.247  -0.201  -0.175  -0.158  -0.124
 -0.115  -0.106  -0.058  -0.007   0.015   0.024   0.029   0.038
  0.058   0.088   0.118
 -- Virtual --
  0.171   0.182   0.195   0.235   0.250   0.251   0.258   0.262
  0.267   0.282   0.283   0.291   0.299   0.311   0.321   0.322
  0.328   0.333   0.338   0.338   0.346   0.360   0.375   0.390
  0.396   0.411   0.416   0.427   0.432   0.454   0.461   0.480
  0.486   0.502   0.528   0.538   0.549   0.556   0.565   0.576
  0.578   0.593   0.594   0.605   0.631   0.648   0.666   0.702
  0.726   0.749   0.762   0.826   0.939   0.963   0.982   0.988
  1.000   1.010   1.039   1.054   1.068   1.076   1.096   1.123
  1.135   1.142   1.176   1.196   1.205   1.230   1.258   1.271
  1.289   1.324   1.364   1.393   1.410   1.424   1.462   1.508
  1.523   1.545   1.561   1.591   1.602   1.621   1.634   1.650
  1.674   1.692   1.705   1.777   1.782   1.802   1.832   1.858
  1.865   1.910   1.927   1.952   1.973   2.013   2.019   2.026
  2.036   2.080   2.097   2.119   2.147   2.164   2.185   2.194
  2.222   2.253   2.263   2.289   2.344   2.379   2.433   2.452
  2.535   2.557   2.615   2.643   2.675   2.691   2.702   2.744
  2.788   2.859   2.930   2.992   3.070   3.124   3.226   3.328
  3.347   3.389   3.458   4.244   4.411   4.458   4.542   4.564
  4.634   4.697   4.764   4.946
 --------------------------------------------------------------
 
          Ground-State Mulliken Net Atomic Charges

     Atom                 Charge (a.u.)
  ----------------------------------------
      1 C                     0.537178
      2 O                    -0.509273
      3 O                    -0.591638
      4 C                    -1.408074
      5 O                    -0.517311
      6 C                    -0.700389
      7 O                     0.372547
      8 C                     0.015724
      9 H                     0.052430
     10 H                    -0.004192
     11 H                    -0.002226
     12 C                    -0.629739
     13 H                     0.454331
     14 H                     0.506730
     15 H                     0.423902
  ----------------------------------------
  Sum of atomic charges =    -2.000000

 -----------------------------------------------------------------
                    Cartesian Multipole Moments
 -----------------------------------------------------------------
    Charge (ESU x 10^10)
                -9.6064
    Dipole Moment (Debye)
         X       1.1615      Y       5.0594      Z      -6.8548
       Tot       8.5986
    Quadrupole Moments (Debye-Ang)
        XX    -125.0930     XY       3.2848     YY     -77.0691
        XZ      18.7561     YZ     -12.6788     ZZ    -104.7558
    Octopole Moments (Debye-Ang^2)
       XXX     106.7175    XXY      14.1653    XYY      12.6381
       YYY       9.5783    XXZ     -83.1946    XYZ      -3.0235
       YYZ     -11.9069    XZZ      65.9353    YZZ      17.0702
       ZZZ     -52.0086
    Hexadecapole Moments (Debye-Ang^3)
      XXXX   -1810.0240   XXXY      35.1606   XXYY    -355.3494
      XYYY      38.0360   YYYY    -506.9987   XXXZ     289.9477
      XXYZ     -28.1643   XYYZ      47.6056   YYYZ     -60.7530
      XXZZ    -519.1975   XYZZ       3.9469   YYZZ    -238.1025
      XZZZ     285.1160   YZZZ     -70.8024   ZZZZ    -925.4122
 -----------------------------------------------------------------
 Calculating analytic gradient of the SCF energy
 CPU 0.00 s  wall 0.00 s
 CPU 8.03 s  wall 8.03 s
 Gradient of SCF Energy
            1           2           3           4           5           6
    1   0.0025795   0.0060780   0.0034984  -0.1054386   0.0145116   0.0040030
    2   0.0172477  -0.0171312  -0.0072745   0.0426659  -0.0598749  -0.0079607
    3   0.0011189   0.0060880  -0.0062924   0.0308918   0.0088551   0.0160286
            7           8           9          10          11          12
    1   0.0724045  -0.0210129   0.0033656   0.0265896   0.0246216  -0.0184510
    2   0.0365547  -0.0200362   0.0011968  -0.0248312   0.0225321  -0.0105101
[...]
 C         -0.399  0.335  0.103    0.136 -0.047 -0.060   -0.019  0.036 -0.002
 H          0.179  0.030 -0.326   -0.007  0.117  0.395   -0.542 -0.080  0.403
 H          0.023  0.324  0.028   -0.024 -0.388 -0.224    0.556 -0.394  0.108
 H         -0.245 -0.164  0.066    0.090  0.392 -0.341   -0.139  0.151 -0.099
 C         -0.011  0.009 -0.122    0.016  0.029 -0.031    0.001  0.016 -0.014
 H         -0.043 -0.052  0.091   -0.062 -0.055  0.118    0.013  0.013 -0.028
 H         -0.021 -0.004  0.030   -0.052 -0.010  0.052    0.023 -0.001 -0.010
 H         -0.027 -0.130  0.205   -0.059 -0.155  0.272    0.030 -0.016  0.005
 TransDip   0.000  0.033  0.052   -0.044  0.001  0.023    0.016 -0.151  0.155

 Mode:                13                     14                     15
 Frequency:       236.00                 249.23                 260.42
 Force Cnst:      0.0520                 0.1363                 0.1802
 Red. Mass:       1.5844                 3.7246                 4.5093
 IR Active:          YES                    YES                    YES
 IR Intens:       59.914                 50.239                 30.686
 Raman Active:       YES                    YES                    YES
               X      Y      Z        X      Y      Z        X      Y      Z
 C         -0.010  0.044  0.015    0.093 -0.048 -0.048   -0.002 -0.091  0.042
 O          0.049  0.062  0.067   -0.079 -0.130 -0.051    0.025 -0.053 -0.169
 O         -0.006 -0.054 -0.037    0.009  0.051  0.126    0.070  0.088  0.034
 C         -0.041  0.075  0.011    0.256  0.002 -0.184   -0.106 -0.251  0.203
 O          0.005 -0.031 -0.029   -0.026  0.061 -0.021   -0.095  0.005  0.061
 C          0.050 -0.101 -0.030   -0.177  0.060  0.176    0.129  0.285 -0.119
 O          0.010 -0.013 -0.001    0.008 -0.004 -0.002    0.002 -0.007  0.001
 C         -0.012  0.021  0.002   -0.011  0.011  0.005   -0.002  0.013 -0.003
 H         -0.557 -0.195 -0.207   -0.419 -0.167 -0.213   -0.288 -0.127 -0.242
 H         -0.218 -0.158 -0.139   -0.204 -0.120 -0.137   -0.288 -0.080 -0.179
 H          0.653 -0.119  0.020    0.585 -0.118  0.011    0.611 -0.094 -0.014
 C         -0.047  0.042  0.032   -0.023  0.026  0.017   -0.011  0.030  0.010
 H          0.047 -0.022  0.059   -0.196  0.036 -0.029   -0.047  0.097 -0.086
 H         -0.092  0.052 -0.017    0.058 -0.087  0.004   -0.026 -0.059  0.015
 H         -0.053  0.037 -0.089   -0.060  0.183 -0.045   -0.085 -0.077  0.074
 TransDip  -0.130 -0.178 -0.113    0.074 -0.161 -0.142   -0.040 -0.168 -0.039

 Mode:                16                     17                     18
 Frequency:       394.50                 461.65                 557.59
 Force Cnst:      0.4294                 0.8501                 1.9669
 Red. Mass:       4.6829                 6.7701                10.7377
 IR Active:          YES                    YES                    YES
 IR Intens:      350.956                 21.763                 17.747
 Raman Active:       YES                    YES                    YES
               X      Y      Z        X      Y      Z        X      Y      Z
 C         -0.129  0.022 -0.066    0.018 -0.026 -0.010   -0.137  0.111 -0.073
 O         -0.129 -0.006 -0.049   -0.036 -0.098 -0.068   -0.219  0.140 -0.092
 O         -0.131  0.139 -0.040    0.017  0.068  0.060   -0.155 -0.303 -0.318
 C         -0.037 -0.079 -0.063    0.065 -0.076 -0.047    0.391 -0.126  0.218
 O          0.318  0.000  0.234   -0.190  0.360  0.130   -0.053  0.106  0.027
 C         -0.033 -0.068 -0.066    0.228 -0.395 -0.146    0.272  0.106  0.357
 O          0.000  0.000  0.001   -0.001 -0.001 -0.002    0.000  0.000  0.002
 C          0.002  0.001 -0.004    0.000 -0.001 -0.001    0.000  0.001 -0.001
 H         -0.088 -0.067 -0.126    0.022  0.015  0.023    0.030  0.003 -0.025
 H         -0.071 -0.065 -0.078   -0.015  0.024  0.006    0.008 -0.018 -0.010
 H          0.330 -0.067 -0.017   -0.099  0.021  0.002    0.110 -0.010 -0.013
 C          0.016 -0.004 -0.008   -0.001  0.001  0.002    0.000  0.001 -0.005
 H          0.420 -0.319 -0.077    0.292  0.065  0.294    0.216  0.043  0.009
 H          0.315 -0.043  0.239   -0.361  0.316  0.058    0.049  0.117  0.043
 H          0.322 -0.049  0.195   -0.207  0.271  0.113    0.073 -0.345  0.146
 TransDip   0.543 -0.254  0.002   -0.090  0.087  0.081    0.125 -0.047 -0.018

 Mode:                19                     20                     21
 Frequency:       599.90                 656.94                 721.03
 Force Cnst:      0.2347                 2.7544                 0.3474
 Red. Mass:       1.1068                10.8322                 1.1340
 IR Active:          YES                    YES                    YES
 IR Intens:      194.531                 70.601                204.381
 Raman Active:       YES                    YES                    YES
               X      Y      Z        X      Y      Z        X      Y      Z
 C         -0.009  0.012 -0.014    0.084 -0.072  0.118    0.003  0.006 -0.001
 O         -0.001  0.013 -0.005   -0.259 -0.201 -0.374   -0.019 -0.012  0.008
 O         -0.018 -0.006 -0.011    0.159 -0.150  0.029    0.001 -0.004  0.000
 C          0.025 -0.036  0.008   -0.203  0.596  0.174   -0.006  0.009  0.007
 O          0.024 -0.042  0.019    0.085 -0.021  0.063   -0.010 -0.004 -0.019
 C          0.033  0.023 -0.009    0.119 -0.015  0.084    0.012  0.003 -0.007
 O          0.000  0.001 -0.003    0.000  0.000 -0.001    0.001  0.000  0.003
 C         -0.001 -0.002  0.003    0.000 -0.001  0.000    0.000  0.000 -0.005
 H         -0.067 -0.014  0.028    0.024  0.005 -0.003   -0.357 -0.125 -0.068
 H         -0.028  0.024  0.005    0.045 -0.009  0.018   -0.415  0.021 -0.189
 H         -0.160  0.010  0.022    0.059 -0.016  0.003   -0.402  0.057  0.011
 C          0.008 -0.001  0.009   -0.007 -0.003 -0.001    0.096  0.005  0.016
 H         -0.167 -0.195  0.193    0.134 -0.110  0.047   -0.112 -0.114  0.113
 H         -0.060 -0.042  0.100    0.124 -0.235  0.120    0.157  0.084 -0.290
 H         -0.271  0.824 -0.298   -0.063  0.263 -0.146    0.297  0.115  0.460
 TransDip  -0.430  0.118  0.019    0.241 -0.036  0.115   -0.270  0.369  0.020

 Mode:                22                     23                     24
 Frequency:       755.76                 781.66                 892.04
 Force Cnst:      0.3980                 2.6875                 6.3914
 Red. Mass:       1.1828                 7.4654                13.6326
 IR Active:          YES                    YES                    YES
 IR Intens:      213.168                 25.021                 47.750
 Raman Active:       YES                    YES                    YES
               X      Y      Z        X      Y      Z        X      Y      Z
 C          0.039  0.028 -0.038   -0.414 -0.265  0.454   -0.188 -0.303 -0.349
 O         -0.022 -0.013  0.022    0.105  0.076 -0.086    0.360 -0.345  0.102
 O         -0.008 -0.009  0.010    0.106  0.077 -0.125   -0.338  0.296 -0.131
 C         -0.016 -0.006  0.018    0.165  0.066 -0.167    0.004  0.312  0.180
 O         -0.014 -0.006 -0.020   -0.021 -0.010 -0.013   -0.051 -0.010 -0.037
 C          0.020  0.004 -0.017   -0.013 -0.012  0.004    0.217  0.063  0.247
 O         -0.001 -0.001 -0.003   -0.001  0.000 -0.002    0.000  0.000  0.000
 C          0.000  0.000  0.003    0.000  0.000  0.002    0.000  0.000  0.000
 H          0.299  0.100  0.025    0.142  0.048  0.010    0.008  0.003  0.004
 H          0.327 -0.033  0.143    0.153 -0.015  0.067    0.009  0.001  0.006
 H          0.378 -0.055 -0.016    0.176 -0.025 -0.008    0.009 -0.002  0.001
 C         -0.088 -0.006 -0.017   -0.043 -0.002 -0.009   -0.003  0.000  0.001
 H         -0.187 -0.181  0.189   -0.150 -0.100  0.069    0.073 -0.009  0.123
 H          0.185  0.086 -0.314    0.136  0.094 -0.245    0.015  0.068 -0.006
 H          0.274  0.299  0.449    0.178  0.299  0.325   -0.032  0.009 -0.001
 TransDip   0.404 -0.222  0.078   -0.051 -0.082  0.128   -0.137 -0.075 -0.157

 Mode:                25                     26                     27
 Frequency:      1090.28                1270.80                1324.66
 Force Cnst:      0.7585                 5.6025                 1.1451
 Red. Mass:       1.0830                 5.8882                 1.1076
 IR Active:          YES                    YES                    YES
 IR Intens:      111.344                855.146                434.095
 Raman Active:       YES                    YES                    YES
               X      Y      Z        X      Y      Z        X      Y      Z
 C         -0.008  0.000  0.002   -0.007  0.437  0.254   -0.014 -0.012 -0.029
 O         -0.009 -0.020 -0.014    0.117 -0.299 -0.068   -0.017 -0.003  0.002
 O          0.011 -0.002  0.006   -0.115  0.003 -0.103    0.019 -0.004  0.013
 C          0.003 -0.008 -0.011    0.030 -0.042 -0.002    0.001 -0.003  0.003
 O          0.023 -0.024 -0.023    0.052 -0.021  0.014    0.002 -0.059  0.033
 C         -0.033  0.045 -0.002   -0.033 -0.007 -0.027   -0.005 -0.008  0.019
 O          0.000  0.000  0.000   -0.002 -0.002 -0.005   -0.001 -0.001 -0.003
 C          0.000  0.000  0.000    0.002  0.002  0.006    0.001  0.001  0.004
 H          0.003  0.001  0.006    0.012  0.003  0.031    0.003  0.003  0.018
 H          0.004  0.003  0.002    0.014  0.034  0.015    0.009  0.014  0.007
 H         -0.003  0.000  0.001    0.000  0.009 -0.006    0.003 -0.002  0.001
 C         -0.001  0.000  0.000   -0.008 -0.002 -0.001   -0.004 -0.001 -0.001
 H          0.303 -0.041  0.749   -0.309  0.525 -0.011    0.279  0.488 -0.444
 H         -0.208  0.504 -0.029   -0.389 -0.138 -0.237   -0.069  0.555 -0.289
 H         -0.022 -0.173 -0.104    0.040 -0.001  0.043   -0.032  0.283  0.028
 TransDip  -0.231  0.208  0.132   -0.670  0.620  0.210   -0.533  0.293 -0.275

 Mode:                28                     29                     30
 Frequency:      1450.15                1460.67                1555.93
 Force Cnst:      1.3428                 1.3621                 1.7087
 Red. Mass:       1.0837                 1.0836                 1.1980
 IR Active:          YES                    YES                    YES
 IR Intens:        1.471                  3.875                649.109
 Raman Active:       YES                    YES                    YES
               X      Y      Z        X      Y      Z        X      Y      Z
 C          0.000  0.000  0.000   -0.003 -0.003 -0.004    0.068 -0.021  0.044
 O          0.000  0.000  0.000   -0.001  0.002  0.000    0.001  0.014 -0.001
 O          0.000  0.000  0.000    0.002  0.000  0.002   -0.042  0.013 -0.028
 C          0.000  0.000  0.000    0.000  0.001  0.000    0.001 -0.005 -0.002
 O          0.001  0.002  0.001    0.002  0.002  0.001   -0.040 -0.023 -0.044
 C          0.001  0.000  0.000    0.001  0.000  0.000   -0.029  0.006 -0.004
 O          0.000  0.000  0.000    0.000  0.000  0.000    0.000  0.000  0.000
 C          0.000  0.000  0.000    0.000  0.000  0.000    0.000  0.000  0.001
 H         -0.006  0.172  0.642   -0.249 -0.041  0.378   -0.006  0.006  0.029
 H         -0.202  0.009 -0.155   -0.095  0.728  0.253   -0.008  0.025  0.006
 H          0.070 -0.557  0.412    0.230  0.226 -0.279    0.018 -0.008  0.001
 C          0.011  0.032 -0.076    0.009 -0.076 -0.030   -0.001 -0.003 -0.004
 H         -0.018 -0.014  0.000   -0.026 -0.019  0.004    0.669  0.284  0.129
 H          0.009  0.003 -0.014   -0.007 -0.004 -0.014    0.001 -0.401  0.300
 H         -0.001 -0.014 -0.005    0.002 -0.017  0.003    0.145  0.292  0.286
 TransDip   0.017 -0.034 -0.005   -0.024 -0.015 -0.056    0.669 -0.200  0.423

 Mode:                31                     32                     33
 Frequency:      1572.28                1686.21                1894.88
 Force Cnst:      2.3884                 3.4242                 2.3489
 Red. Mass:       1.6398                 2.0440                 1.1103
 IR Active:          YES                    YES                    YES
 IR Intens:     1956.398                 93.789                874.020
 Raman Active:       YES                    YES                    YES
               X      Y      Z        X      Y      Z        X      Y      Z
 C          0.145 -0.029  0.115   -0.189  0.131 -0.092   -0.018  0.048  0.009
 O         -0.004 -0.003  0.008    0.038 -0.048  0.010    0.018 -0.032 -0.009
 O         -0.088  0.026 -0.066    0.103 -0.040  0.069    0.011 -0.010  0.006
 C         -0.001 -0.001  0.001   -0.005 -0.007 -0.010   -0.003 -0.001 -0.002
 O         -0.047  0.006  0.025   -0.056  0.006  0.004   -0.032 -0.012 -0.043
 C         -0.018 -0.005 -0.019   -0.006  0.009  0.010   -0.001 -0.002 -0.003
 O          0.001  0.001  0.003    0.001  0.001  0.002    0.002  0.002  0.004
 C         -0.002 -0.001 -0.004   -0.001 -0.001 -0.002   -0.003 -0.002 -0.005
 H         -0.016 -0.003 -0.005   -0.005  0.000 -0.001   -0.007  0.004  0.004
 H         -0.008  0.011  0.004   -0.003  0.003  0.001   -0.007  0.007  0.005
 H         -0.002  0.010 -0.010    0.000  0.002 -0.002    0.012 -0.001 -0.002
 C          0.005 -0.002  0.001    0.002 -0.001  0.000    0.001 -0.002 -0.002
 H          0.149 -0.194 -0.030    0.464 -0.014  0.129   -0.068 -0.196 -0.199
 H          0.758  0.242 -0.271    0.713 -0.286 -0.191    0.256  0.479  0.759
 H         -0.247 -0.082 -0.336   -0.160  0.029 -0.171    0.104  0.054  0.156
 TransDip   1.353 -0.236  0.346    0.276  0.073 -0.121    0.874  0.025  0.364

 Mode:                34                     35                     36
 Frequency:      2031.41                2107.61                2933.89
 Force Cnst:     28.8523                34.1388                 5.1809
 Red. Mass:      11.8668                13.0442                 1.0216
 IR Active:          YES                    YES                    YES
 IR Intens:       33.096               1125.889                193.784
 Raman Active:       YES                    YES                    YES
               X      Y      Z        X      Y      Z        X      Y      Z
 C         -0.065 -0.042 -0.080    0.000 -0.001  0.000    0.000  0.000  0.000
 O          0.008 -0.009  0.001    0.000  0.001  0.000    0.000  0.000  0.000
 O         -0.001 -0.003 -0.002    0.000  0.000  0.000    0.000  0.000  0.000
 C          0.469  0.163  0.565   -0.002  0.001 -0.002    0.000  0.000  0.000
 O          0.005 -0.003  0.001   -0.004  0.005 -0.004    0.000  0.000  0.000
 C         -0.417 -0.095 -0.476    0.001  0.002  0.000    0.000  0.000  0.000
 O         -0.001  0.000 -0.001   -0.272 -0.204 -0.483    0.001  0.001  0.002
 C          0.001  0.001  0.001    0.361  0.272  0.644   -0.002 -0.001 -0.003
 H          0.001  0.000  0.000   -0.013 -0.056  0.015    0.135 -0.525  0.107
 H          0.001  0.000  0.000   -0.023  0.015 -0.032    0.158  0.162 -0.412
 H         -0.001  0.000  0.000   -0.055  0.024  0.019    0.052  0.437  0.528
 C          0.000  0.000  0.000    0.008  0.002  0.000   -0.029 -0.006 -0.019
 H         -0.019 -0.066 -0.083    0.017 -0.081 -0.015    0.002 -0.005 -0.002
 H         -0.018  0.007 -0.014    0.082  0.014  0.068    0.005  0.000  0.003
 H         -0.001 -0.007 -0.005   -0.013 -0.058  0.022   -0.007 -0.002  0.006
 TransDip  -0.138  0.008 -0.122    0.320 -1.012  0.166   -0.271 -0.333 -0.122

 Mode:                37                     38                     39
 Frequency:      3027.54                3043.13                3531.23
 Force Cnst:      5.9577                 6.0178                 7.8328
 Red. Mass:       1.1032                 1.1029                 1.0661
 IR Active:          YES                    YES                    YES
 IR Intens:       76.693                 99.005                740.661
 Raman Active:       YES                    YES                    YES
               X      Y      Z        X      Y      Z        X      Y      Z
 C          0.000  0.000  0.000    0.000  0.000  0.000   -0.001  0.001  0.000
 O          0.000  0.000  0.000    0.000  0.000  0.000    0.001  0.000  0.000
 O          0.000  0.000  0.000    0.000  0.000  0.000    0.000  0.000  0.000
 C          0.000  0.000  0.000    0.000  0.000  0.000    0.000  0.000  0.000
 O          0.000  0.000  0.001    0.001  0.000  0.000   -0.052 -0.005  0.033
 C          0.000  0.000  0.000    0.000  0.000  0.000    0.001 -0.001  0.000
 O         -0.001  0.000 -0.001    0.000  0.000  0.000   -0.001  0.000 -0.001
 C          0.001  0.001  0.001    0.000  0.000 -0.001    0.001  0.001  0.001
 H         -0.205  0.618 -0.161    0.163 -0.454  0.082    0.001 -0.023  0.003
 H         -0.096 -0.115  0.198   -0.357 -0.288  0.714   -0.005 -0.001  0.002
 H          0.102  0.425  0.537    0.029  0.130  0.116    0.003  0.000 -0.001
 C          0.017 -0.078 -0.048    0.014  0.051 -0.076    0.001  0.001 -0.001
 H         -0.003  0.004  0.002    0.000  0.001  0.000   -0.011  0.021  0.012
 H         -0.005 -0.001 -0.004   -0.001  0.000 -0.002   -0.018 -0.006  0.004
 H          0.010  0.000 -0.010   -0.014  0.002  0.006    0.829  0.080 -0.548
 TransDip   0.092 -0.197 -0.178    0.030  0.175 -0.265    0.845  0.050 -0.208

 STANDARD THERMODYNAMIC QUANTITIES AT   298.15 K  AND     1.00 ATM

   This Molecule has  3 Imaginary Frequencies
   Zero point vibrational energy:       53.478 kcal/mol

   Atom    1 Element C  Has Mass   12.00000
   Atom    2 Element O  Has Mass   15.99491
   Atom    3 Element O  Has Mass   15.99491
   Atom    4 Element C  Has Mass   12.00000
   Atom    5 Element O  Has Mass   15.99491
   Atom    6 Element C  Has Mass   12.00000
   Atom    7 Element O  Has Mass   15.99491
   Atom    8 Element C  Has Mass   12.00000
   Atom    9 Element H  Has Mass    1.00783
   Atom   10 Element H  Has Mass    1.00783
   Atom   11 Element H  Has Mass    1.00783
   Atom   12 Element C  Has Mass   12.00000
   Atom   13 Element H  Has Mass    1.00783
   Atom   14 Element H  Has Mass    1.00783
   Atom   15 Element H  Has Mass    1.00783
   Molecular Mass:   130.026620 amu
   Principal axes and moments of inertia in amu*Bohr^2:
                             1           2           3
    Eigenvalues --     1307.22663  3017.60888  3682.80043
          X               0.99867    -0.05124    -0.00574
          Y               0.05129     0.99865     0.00854
          Z               0.00529    -0.00883     0.99995
   Rotational Symmetry Number is   1
   The Molecule is an Asymmetric Top
   Translational Enthalpy:        0.889 kcal/mol
   Rotational Enthalpy:           0.889 kcal/mol
   Vibrational Enthalpy:         59.538 kcal/mol
   gas constant (RT):             0.592 kcal/mol
   Translational Entropy:        40.501  cal/mol.K
   Rotational Entropy:           31.052  cal/mol.K
   Vibrational Entropy:          45.931  cal/mol.K

   Total Enthalpy:               61.908 kcal/mol
   Total Entropy:               117.484  cal/mol.K
Archival summary:
1\1\bt2600-16\FREQ\ProcedureUnspecified\6-31+G*\456(2-,1)\emavera\TueMay918:26:282017TueMay918:26:282017\0\\#,FREQ,ProcedureUnspecified,6-31+G*,\\-2,1\O\C,1,1.30145\O,2,1.24764,1,125.933\H,1,1.42628,2,113.25,3,169.597,0\O,4,1.10126,1,169.767,2,11.2942,0\H,5,0.984659,4,109.958,1,-120.268,0\H,5,1.21802,4,95.7723,1,-2.08164,0\C,7,1.44281,5,153.179,4,11.047,0\C,8,1.24656,7,99.7893,5,-21.1613,0\H,6,2.44044,5,165.359,4,-147.251,0\C,10,1.1036,6,106.596,5,43.5869,0\H,11,1.10257,10,110.08,6,-29.3435,0\H,11,1.10591,10,111.412,6,94.234,0\O,10,3.41087,6,72.4897,5,-128.976,0\C,14,1.14247,10,96.4904,6,99.0534,0\\\@

 Total job time:  2105.54s(wall), 2105.51s(cpu) 
 Tue May  9 18:26:28 2017

        *************************************************************
        *                                                           *
        *  Thank you very much for using Q-Chem.  Have a nice day.  *
        *                                                           *
        *************************************************************


0 sent ACK to 0 
now end server 0 ... 
cleanup process ... done
