
Running Job 1 of 3 tut.qcin
qchem tut.qcin_47229.0 /tmp/tut.qcin/ 1
/programs/x86_64/lib/qchem-4.3.2/bin/mpi/mpirun_qchem -machinefile /var/spool/torque/aux//113238.vali -np 1 /programs/x86_64/lib/qchem-4.3.2/exe/qcprog.exe tut.qcin_47229.0 /tmp/tut.qcin/

Process 0 of 1 is on bt2600-16.csail.mit.edu - thread support 0
initial socket setup ...start
initial socket setup ...done 
now start server 0 ... 

cmd = ssh thor /programs/x86_64/lib/qchem-4.3.2/bin/get_hostid 640036265 > /tmp/tut.qcin/lic.dat
                  Welcome to Q-Chem
     A Quantum Leap Into The Future Of Chemistry


 Q-Chem 4.3, Q-Chem, Inc., Pleasanton, CA (2015)

 Y. Shao,  Z. Gan,  E. Epifanovsky,  A. T. B. Gilbert,  M. Wormit,  
 J. Kussmann,  A. W. Lange,  A. Behn,  J. Deng,  X. Feng,  D. Ghosh,  
 M. Goldey,  P. R. Horn,  L. D. Jacobson,  I. Kaliman,  R. Z. Khaliullin,  
 T. Kus,  A. Landau,  J. Liu,  E. I. Proynov,  Y. M. Rhee,  R. M. Richard,  
 M. A. Rohrdanz,  R. P. Steele,  E. J. Sundstrom,  H. L. Woodcock III,  
 P. M. Zimmerman,  D. Zuev,  B. Albrecht,  E. Alguire,  B. Austin,  
 S. A. Baeppler,  G. J. O. Beran,  Y. A. Bernard,  E. Berquist,  
 K. Brandhorst,  K. B. Bravaya,  S. T. Brown,  D. Casanova,  C.-M. Chang,  
 Y. Chen,  S. H. Chien,  K. D. Closser,  D. L. Crittenden,  M. Diedenhofen,  
 R. A. DiStasio Jr.,  H. Do,  A. D. Dutoi,  R. G. Edgar,  P.-T. Fang,  
 S. Fatehi,  Q. Feng,  L. Fusti-Molnar,  A. Ghysels,  
 A. Golubeva-Zadorozhnaya,  J. Gomes,  A. Gunina,  M. W. D. Hanson-Heine,  
 P. H. P. Harbach,  A. W. Hauser,  E. G. Hohenstein,  Z. C. Holden,  K. Hui,  
 T.-C. Jagau,  H. Ji,  B. Kaduk,  K. Khistyaev,  Jaehoon Kim,  Jihan Kim,  
 R. A. King,  P. Klunzinger,  D. Kosenkov,  T. Kowalczyk,  C. M. Krauter,  
 K. U. Lao,  A. Laurent,  K. V. Lawler,  S. Lehtola,  S. V. Levchenko,  
 C. Y. Lin,  Y.-S. Lin,  F. Liu,  E. Livshits,  R. C. Lochan,  A. Luenser,  
 P. Manohar,  S. F. Manzer,  S.-P. Mao,  N. Mardirossian,  A. V. Marenich,  
 L. A. Martinez-Martinez,  S. A. Maurer,  N. J. Mayhall,  K. Nanda,  
 C. M. Oana,  R. Olivares-Amaya,  D. P. O'Neill,  J. A. Parkhill,  
 T. M. Perrine,  R. Peverati,  P. A. Pieniazek,  F. Plasser,  A. Prociuk,  
 D. R. Rehn,  E. Rosta,  N. J. Russ,  N. Sergueev,  S. M. Sharada,  
 S. Sharma,  D. W. Small,  A. Sodt,  T. Stauch,  T. Stein,  D. Stuck,  
 Y.-C. Su,  A. J. W. Thom,  T. Tsuchimochi,  L. Vogt,  O. Vydrov,  T. Wang,  
 M. A. Watson,  J. Wenzel,  A. White,  C. F. Williams,  V. Vanovschi,  
 S. Yeganeh,  S. R. Yost,  Z.-Q. You,  I. Y. Zhang,  X. Zhang,  Y. Zhao,  
 B. R. Brooks,  G. K. L. Chan,  D. M. Chipman,  C. J. Cramer,  
 W. A. Goddard III,  M. S. Gordon,  W. J. Hehre,  A. Klamt,  
 H. F. Schaefer III,  M. W. Schmidt,  C. D. Sherrill,  D. G. Truhlar,  
 A. Warshel,  X. Xu,  A. Aspuru-Guzik,  R. Baer,  A. T. Bell,  N. A. Besley,  
 J.-D. Chai,  A. Dreuw,  B. D. Dunietz,  T. R. Furlani,  S. R. Gwaltney,  
 C.-P. Hsu,  Y. Jung,  J. Kong,  D. S. Lambrecht,  W. Liang,  C. Ochsenfeld,  
 V. A. Rassolov,  L. V. Slipchenko,  J. E. Subotnik,  T. Van Voorhis,  
 J. M. Herbert,  A. I. Krylov,  P. M. W. Gill,  M. Head-Gordon

 Contributors to earlier versions of Q-Chem not listed above: 
 R. D. Adamson,  J. Baker,  E. F. C. Byrd,  A. K. Chakraborty,  C.-L. Cheng,  
 H. Dachsel,  R. J. Doerksen,  G. Hawkins,  A. Heyden,  S. Hirata,  
 G. Kedziora,  F. J. Keil,  C. Kelley,  P. P. Korambath,  W. Kurlancheek,  
 A. M. Lee,  M. S. Lee,  D. Liotard,  I. Lotan,  P. E. Maslen,  N. Nair,  
 D. Neuhauser,  R. Olson,  B. Peters,  J. Ritchie,  N. E. Schultz,  
 N. Shenvi,  A. C. Simmonett,  K. S. Thanthiriwatte,  Q. Wu,  W. Zhang

 Please cite Q-Chem as follows:
 Y. Shao et al., Mol. Phys. 113, 184-215 (2015)
 DOI: 10.1080/00268976.2014.952696

 Q-Chem 4.3.0 for Intel X86 Linux

 Parts of Q-Chem use Armadillo 5.200.1 (Boston Tea Smuggler).
 http://arma.sourceforge.net/

 Q-Chem begins on Mon Apr 24 13:25:11 2017  

Host: 
0

     Scratch files written to /tmp/tut.qcin//
 Oct1215 13750_ 19228  19214 4150   
 Parallel job on  1  processors
Processing $rem in /programs/x86_64/lib/qchem-4.3.2/config/preferences.
 MEM_TOTAL  2000 

Checking the input file for inconsistencies... 	...done.

--------------------------------------------------------------
User input:
--------------------------------------------------------------
$comment
Optimize the saddle point structure in the C7eq->C7ax conformational change of alanine dipeptide
Job 1: Hessian evaluation.  This can sometimes be done at a lower level of theory
Job 2: Saddle point optimization.   Note that the Hessian from a previous calculation is read in.
Job 3: Hessian evaluation and frequency calculation.  This confirms that we indeed reach a saddle point.
$end

$molecule
0  1
C 3.19498   0.55128   0.54366
H 3.59029   1.40911   -0.01245
H 3.74099   -0.34822  0.24677
H 3.38006   0.75469   1.60271
C 1.69020   0.51356   0.33819
O 1.02580   1.51015   0.73682
N 1.17338   -0.59609  -0.27839
H 1.85193   -1.30016  -0.50478
C -0.20809  -1.03310  -0.71192
H -0.12609  -1.16570  -1.80171
C -0.48943  -2.42344  -0.09157
H -0.58992  -2.34798  0.99546
H -1.42342  -2.81371  -0.50398
H 0.31625   -3.13252  -0.31951
C -1.49990  -0.15827  -0.57196
O -2.55539  -0.70393  -1.01112
N -1.43599  1.07807   -0.04307
H -0.54314  1.41943   0.29195
C -2.62334  1.93704   0.09902
H -2.54722  2.47568   1.05202
H -3.52914  1.33873   0.08717
H -2.67451  2.67852   -0.70846
$end

$rem
jobtype          freq
exchange         hf
basis            6-31+G(d)
$end

--------------------------------------------------------------
 ----------------------------------------------------------------
             Standard Nuclear Orientation (Angstroms)
    I     Atom           X                Y                Z
 ----------------------------------------------------------------
    1      C      -3.4156849157    -0.4368668730    -0.0702083847
    2      H      -3.7193000030    -1.1255082983    -0.8670719259
    3      H      -3.8899233660     0.5338394616    -0.2381308262
    4      H      -3.7849111277    -0.8633597421     0.8673378670
    5      C      -1.8977496122    -0.4331527955    -0.0080618842
    6      O      -1.3259117506    -1.5274496114     0.2546942837
    7      N      -1.2670918431     0.7580018406    -0.2570967060
    8      H      -1.8866517167     1.5296818384    -0.4245859396
    9      C       0.1743220015     1.2080110499    -0.3419683863
   10      H       0.2849967526     1.5865904367    -1.3697707756
   11      C       0.3614691217     2.4062880988     0.6203931378
   12      H       0.2702249866     2.0829492845     1.6618119736
   13      H       1.3579875035     2.8296290943     0.4705147962
   14      H      -0.3829341321     3.1898845029     0.4314174152
   15      C       1.4105481270     0.2573577444    -0.1946840822
   16      O       2.5333808824     0.8315046687    -0.3141302788
   17      N       1.2394613381    -1.0611676238     0.0164222415
   18      H       0.2975588308    -1.4216725636     0.1102413630
   19      C       2.3726668150    -1.9913700033     0.1520243496
   20      H       2.1248218370    -2.7258869723     0.9286799960
   21      H       3.2744153083    -1.4542818062     0.4294677529
   22      H       2.5539463828    -2.5337485395    -0.7846709858
 ----------------------------------------------------------------
 Molecular Point Group                 C1    NOp =  1
 Largest Abelian Subgroup              C1    NOp =  1
 Nuclear Repulsion Energy =   552.7742819418 hartrees
 There are       39 alpha and       39 beta electrons
 Requested basis set is 6-31+G(d)
 There are 74 shells and 214 basis functions

 Total QAlloc Memory Limit   2000 MB
 Mega-Array Size        61 MB
 MEM_STATIC part        62 MB
 A cutoff of  1.0D-11 yielded   2438 shell pairs
 There are     21472 function pairs
 
 -------------------------------------------------------
 OpenMP Integral Computing Module                       
 Release: version 1.0, May 2013, Q-Chem Inc. Pittsburgh 
 -------------------------------------------------------
 Integral Job Info:
 Integral job number is                      11
 Integral operator is                         1
 short-range coefficients                     0
 long-range coefficients              100000000
 Omega coefficients                           0
 if combine SR and LR in K                    0
 Integral screening is                        0
 Integral computing path is                   2
 max size of driver memory is            800000
 size of driver memory is                593474
 size of scratch memory is              2260544
 max col of scratch BK array               1296
 max len of scratch array in speh3          155
 max len of scratch index in speh4           18
 max int batch size is                      520
 min int batch size is                       52
 fixed nKL is                                52
 max L of basis functions is                  2
 order of int derivative is                   0
 number of shells is                         74
 number of basis is                         214
 number of cartesian basis is               214
 number of contracted shell pairs          2438
 number of primitive shell pairs           7865
 maxK2 (contraction) of shell pair           36
 max number of K2 of shell pair               1
 max number of CS2 of shell pair            355
 max number of PS2 of shell pair           1482
 mem total for path MDJ                   51606
 -------------------------------------------------------
 Smallest overlap matrix eigenvalue = 2.73E-05
 Guess from superposition of atomic densities
 Warning:  Energy on first SCF cycle will be non-variational
 A restricted Hartree-Fock SCF calculation will be
 performed using Pulay DIIS extrapolation
 SCF converges when DIIS error is below 1.0E-08
 ---------------------------------------
  Cycle       Energy         DIIS Error
 ---------------------------------------
    1    -495.6524805174      5.09E-02
    2    -492.5976895804      6.44E-03
    3    -492.7323864775      4.89E-03
    4    -492.8351906225      7.11E-04
    5    -492.8390727787      2.26E-04
    6    -492.8394297297      6.48E-05
    7    -492.8394952399      3.18E-05
    8    -492.8395114524      1.38E-05
    9    -492.8395143429      5.60E-06
   10    -492.8395148036      1.99E-06
   11    -492.8395148543      5.24E-07
   12    -492.8395148586      1.19E-07
   13    -492.8395148587      3.77E-08
   14    -492.8395148587      1.43E-08
   15    -492.8395148587      4.78E-09 Convergence criterion met
 ---------------------------------------
 SCF time:  CPU 160.21 s  wall 159.75 s
 SCF   energy in the final basis set = -492.8395148587
 Total energy in the final basis set = -492.8395148587
 
 --------------------------------------------------------------
 
                    Orbital Energies (a.u.)
 --------------------------------------------------------------
 
 Alpha MOs
 -- Occupied --
-20.555 -20.519 -15.631 -15.577 -11.396 -11.362 -11.312 -11.261
-11.253 -11.236  -1.390  -1.349  -1.253  -1.213  -1.063  -1.007
 -0.951  -0.881  -0.828  -0.775  -0.713  -0.709  -0.659  -0.633
 -0.621  -0.609  -0.599  -0.591  -0.584  -0.566  -0.544  -0.539
 -0.527  -0.520  -0.496  -0.442  -0.415  -0.414  -0.373
 -- Virtual --
  0.056   0.075   0.084   0.087   0.099   0.104   0.114   0.119
  0.119   0.129   0.139   0.143   0.151   0.157   0.163   0.168
  0.176   0.180   0.192   0.198   0.203   0.215   0.229   0.242
  0.251   0.260   0.284   0.291   0.301   0.313   0.313   0.326
  0.339   0.352   0.361   0.366   0.372   0.377   0.382   0.393
  0.396   0.403   0.415   0.418   0.421   0.431   0.434   0.442
  0.450   0.456   0.474   0.484   0.495   0.520   0.535   0.541
  0.557   0.573   0.596   0.630   0.674   0.693   0.744   0.848
  0.878   0.885   0.892   0.903   0.918   0.939   0.941   0.951
  0.969   0.992   1.026   1.032   1.046   1.059   1.073   1.118
  1.166   1.185   1.191   1.205   1.217   1.243   1.252   1.265
  1.282   1.301   1.311   1.326   1.337   1.354   1.375   1.384
  1.400   1.416   1.467   1.512   1.528   1.551   1.559   1.575
  1.592   1.623   1.651   1.654   1.678   1.688   1.697   1.726
  1.741   1.777   1.790   1.812   1.853   1.904   1.953   1.982
  2.013   2.061   2.092   2.099   2.112   2.146   2.176   2.206
  2.212   2.244   2.254   2.288   2.301   2.326   2.342   2.366
  2.396   2.434   2.476   2.504   2.556   2.575   2.604   2.612
  2.633   2.661   2.671   2.689   2.714   2.737   2.759   2.816
  2.893   2.910   2.948   2.985   3.025   3.080   3.161   3.181
  3.272   3.423   3.442   3.571   3.606   4.499   4.605   4.659
  4.680   4.808   4.814   4.840   4.883   5.015   5.166
 --------------------------------------------------------------
 
          Ground-State Mulliken Net Atomic Charges

     Atom                 Charge (a.u.)
  ----------------------------------------
      1 C                    -0.710989
      2 H                     0.244782
      3 H                     0.199662
      4 H                     0.245751
      5 C                     0.770169
      6 O                    -0.715606
      7 N                    -0.678516
      8 H                     0.451111
      9 C                    -0.155473
     10 H                     0.246561
     11 C                    -0.625118
     12 H                     0.218539
     13 H                     0.263130
     14 H                     0.182230
     15 C                     0.546184
     16 O                    -0.650293
     17 N                    -0.683669
     18 H                     0.604840
     19 C                    -0.375445
     20 H                     0.190373
     21 H                     0.237498
     22 H                     0.194280
  ----------------------------------------
  Sum of atomic charges =     0.000000

 -----------------------------------------------------------------
                    Cartesian Multipole Moments
 -----------------------------------------------------------------
    Charge (ESU x 10^10)
                 0.0000
    Dipole Moment (Debye)
         X      -5.3734      Y       1.3935      Z      -0.2776
       Tot       5.5581
    Quadrupole Moments (Debye-Ang)
        XX     -62.3202     XY     -11.2790     YY     -60.6352
        XZ       3.7620     YZ       0.2734     ZZ     -61.6981
    Octopole Moments (Debye-Ang^2)
       XXX     -65.6806    XXY     -18.5785    XYY       5.1471
       YYY       6.7422    XXZ       4.1653    XYZ       1.3386
       YYZ      -2.6227    XZZ      -1.4794    YZZ      -1.1034
       ZZZ      -0.6582
    Hexadecapole Moments (Debye-Ang^3)
      XXXX   -1434.2714   XXXY     -46.4582   XXYY    -364.6839
      XYYY     -32.3502   YYYY    -779.7395   XXXZ      22.9348
      XXYZ       3.1234   XYYZ      10.4572   YYYZ      -6.4767
      XXZZ    -263.3190   XYZZ       3.4472   YYZZ    -150.5943
      XZZZ      -3.2064   YZZZ      -3.1306   ZZZZ    -121.3387
 -----------------------------------------------------------------
 Calculating MO derivatives via CPSCF
   1         3          66      0.183831    0.018695
   2         3          66      0.033895    0.005781
   3         3          66      0.006133    0.001160
   4         3          66      0.001026    0.000203
   5        34          35      0.000126    0.000028
   6        66           3      0.000006    0.000003
   7        69           0      0.000000    0.000000    Roots Converged
 Calculating analytic Hessian of the SCF energy
 Polarizability Matrix (a.u.)
            1           2           3
    1 -95.3423873  -1.8601639   0.7494676
    2  -1.8601639 -97.7511686   2.9554681
    3   0.7494676   2.9554681 -64.7336676
 
 Direct stationary perturbation theory relativistic correction:
 
 rels  =       0.160167077488
 relv  =      -0.718262671870
 rel2e =       0.292639221928
 E_rel =      -0.265456372455
 
 Hessian of the SCF Energy
            1           2           3           4           5           6
    1   0.5511767  -0.0303711   0.0010017  -0.0796858  -0.0439640  -0.0559852
    2  -0.0303711   0.6498789  -0.0168047  -0.0426472  -0.1631713  -0.1235799
    3   0.0010017  -0.0168047   0.5911196  -0.0561836  -0.1252329  -0.1985894
    4  -0.0796858  -0.0426472  -0.0561836   0.0833171   0.0494691   0.0591289
    5  -0.0439640  -0.1631713  -0.1252329   0.0494691   0.1733401   0.1373073
    6  -0.0559852  -0.1235799  -0.1985894   0.0591289   0.1373073   0.2138898
    7  -0.1138572   0.0962301  -0.0161490   0.0051141  -0.0092837   0.0037664
    8   0.1019914  -0.2766773   0.0375479   0.0089104  -0.0183369   0.0048544
    9  -0.0172112   0.0373286  -0.0666454   0.0129360  -0.0234076   0.0067882
   10  -0.0901657  -0.0304051   0.0785793   0.0044850   0.0049864  -0.0091680
   11  -0.0328545  -0.0978692   0.0938116   0.0091031   0.0101079  -0.0206675
   12   0.0805646   0.0921082  -0.2580902   0.0093312   0.0107060  -0.0232586
   13  -0.2277014   0.0015036  -0.0043579  -0.0087523  -0.0019584   0.0022375
   14  -0.0067527  -0.0990605  -0.0017848  -0.0276762  -0.0022972  -0.0001003
   15  -0.0023860  -0.0008411  -0.1016983  -0.0321550  -0.0001591   0.0008202
   16  -0.0266554   0.0478211  -0.0120728   0.0010203   0.0021129  -0.0004085
   17   0.0164175  -0.0070521   0.0068586   0.0026542  -0.0002611   0.0016536
   18  -0.0053538   0.0074918   0.0155381   0.0039494   0.0007290   0.0009786
   19  -0.0157548  -0.0399665   0.0086322  -0.0055160  -0.0014012   0.0001761
   20  -0.0057365  -0.0033910   0.0036722   0.0005267   0.0001532   0.0006259
   21  -0.0000350   0.0022709   0.0129735   0.0018076   0.0005283  -0.0004399
   22  -0.0002449  -0.0028071   0.0005957  -0.0002286   0.0002345   0.0000691
   23   0.0002665  -0.0000011  -0.0010356  -0.0000102   0.0003620   0.0000421
   24   0.0000951  -0.0008130  -0.0043538  -0.0007385  -0.0007061   0.0002616
   25   0.0024000   0.0037347  -0.0010281   0.0006670   0.0001456   0.0001808
   26   0.0012746  -0.0012645   0.0023629  -0.0000036   0.0002405  -0.0001407
   27  -0.0006594   0.0021853   0.0099171   0.0019190   0.0002004  -0.0004183
   28   0.0000317  -0.0013417  -0.0017319  -0.0006243  -0.0001125   0.0000625
   29  -0.0000356  -0.0005825  -0.0006525  -0.0002806  -0.0000512   0.0000421
   30   0.0000217   0.0001863  -0.0002525  -0.0000201  -0.0000042  -0.0000232
   31  -0.0001110  -0.0008282   0.0022623   0.0001082   0.0000108  -0.0000892
   32  -0.0001012   0.0001324   0.0004957   0.0000973  -0.0000185  -0.0000265
   33   0.0000908   0.0003215  -0.0007023   0.0000107   0.0000159  -0.0000080
   34  -0.0000061   0.0000539   0.0000156   0.0000119   0.0000094   0.0000095
   35   0.0000064  -0.0000208  -0.0000927  -0.0000049  -0.0000107  -0.0000024
   36  -0.0000141  -0.0001066  -0.0000233  -0.0000303  -0.0000017   0.0000109
   37   0.0000018  -0.0000014   0.0000569  -0.0000005  -0.0000104  -0.0000034
   38   0.0000048  -0.0003007   0.0005250  -0.0000052  -0.0000014  -0.0000202
   39  -0.0000280  -0.0002287   0.0004108  -0.0000035  -0.0000080  -0.0000070
   40   0.0000082   0.0000841  -0.0000859   0.0000083  -0.0000001   0.0000019
   41   0.0000027  -0.0001241   0.0000076  -0.0000262   0.0000238   0.0000057
   42  -0.0000138   0.0000114  -0.0000809  -0.0000037  -0.0000177   0.0000005
   43   0.0000215   0.0008373  -0.0000877   0.0002465   0.0000132   0.0000361
   44   0.0002312  -0.0021888   0.0006424  -0.0003865  -0.0003419  -0.0000309
   45  -0.0000360   0.0004035   0.0000813   0.0000195   0.0000754  -0.0000101
   46  -0.0002590  -0.0004861  -0.0000458  -0.0002478  -0.0000623  -0.0000190
   47  -0.0001788   0.0007813  -0.0002357   0.0001013   0.0001069   0.0000123
   48   0.0000322  -0.0001791  -0.0001193  -0.0000267  -0.0000115   0.0000116
   49  -0.0006138   0.0012900  -0.0005098  -0.0000858   0.0000981  -0.0000178
   50  -0.0002294   0.0015903  -0.0005062   0.0001795   0.0001499   0.0000227
   51   0.0001234  -0.0006109  -0.0003305  -0.0000197  -0.0000401  -0.0000150
   52   0.0014301  -0.0028206   0.0011489   0.0001374  -0.0002891   0.0000087
   53   0.0001526  -0.0008896   0.0005043   0.0000094  -0.0000266   0.0000168
   54  -0.0002252   0.0008654   0.0008230   0.0000856   0.0000360   0.0000060
   55   0.0000301   0.0001332  -0.0000202   0.0000695   0.0000002   0.0000230
   56  -0.0001817   0.0002204  -0.0001099  -0.0000500   0.0000341  -0.0000222
   57   0.0000155   0.0000077   0.0000336  -0.0000109  -0.0000097   0.0000063
   58   0.0000171  -0.0000707   0.0000084  -0.0000097  -0.0000073  -0.0000030
   59   0.0000140   0.0000369   0.0000118   0.0000166   0.0000037   0.0000034
   60  -0.0000061  -0.0000195   0.0000096  -0.0000091   0.0000030  -0.0000089
   61  -0.0000473   0.0000751  -0.0000453  -0.0000081   0.0000092  -0.0000014
   62   0.0000189  -0.0000537   0.0000099   0.0000030  -0.0000068   0.0000016
   63  -0.0000049   0.0000033  -0.0000129   0.0000038  -0.0000003  -0.0000008
   64  -0.0000146  -0.0000175   0.0000171  -0.0000262  -0.0000003  -0.0000051
   65   0.0000247   0.0000075   0.0000052   0.0000203   0.0000016   0.0000026
   66   0.0000135  -0.0000004  -0.0000077   0.0000093  -0.0000023   0.0000053
            7           8           9          10          11          12
    1  -0.1138572   0.1019914  -0.0172112  -0.0901657  -0.0328545   0.0805646
    2   0.0962301  -0.2766773   0.0373286  -0.0304051  -0.0978692   0.0921082
    3  -0.0161490   0.0375479  -0.0666454   0.0785793   0.0938116  -0.2580902
    4   0.0051141   0.0089104   0.0129360   0.0044850   0.0091031   0.0093312
    5  -0.0092837  -0.0183369  -0.0234076   0.0049864   0.0101079   0.0107060
    6   0.0037664   0.0048544   0.0067882  -0.0091680  -0.0206675  -0.0232586
    7   0.1154187  -0.1102529   0.0191441   0.0063523  -0.0120647  -0.0004564
    8  -0.1102529   0.2998093  -0.0420825   0.0047334  -0.0107945   0.0008351
    9   0.0191441  -0.0420825   0.0624163  -0.0148484   0.0276205  -0.0015943
   10   0.0063523   0.0047334  -0.0148484   0.0954443   0.0378994  -0.0856451
   11  -0.0120647  -0.0107945   0.0276205   0.0378994   0.1010330  -0.1016111
   12  -0.0004564   0.0008351  -0.0015943  -0.0856451  -0.1016111   0.2790770
   13  -0.0014816  -0.0047216   0.0005524  -0.0118291  -0.0029636  -0.0028136
   14   0.0354495   0.0008900   0.0007375  -0.0169058  -0.0023324   0.0000541
   15  -0.0053987  -0.0005028  -0.0044448   0.0380120   0.0014236   0.0029398
   16  -0.0119132   0.0002643  -0.0008961   0.0021739   0.0022961  -0.0005329
   17   0.0030902   0.0026935   0.0002032   0.0007339  -0.0006718  -0.0011602
   18  -0.0013675  -0.0001925   0.0029666  -0.0042207  -0.0002520   0.0012738
   19   0.0017564   0.0002817   0.0000378  -0.0065180  -0.0014949  -0.0001259
   20  -0.0015103   0.0007665  -0.0002703  -0.0002130  -0.0001677  -0.0006621
   21   0.0002817  -0.0002941  -0.0005216  -0.0018226  -0.0003979  -0.0000373
   22  -0.0021321  -0.0011222   0.0002239  -0.0002575   0.0002215  -0.0001623
   23  -0.0012961   0.0010252  -0.0000154   0.0003228   0.0006556  -0.0001100
   24   0.0002474  -0.0000589   0.0009734   0.0005885   0.0004141   0.0001016
   25   0.0000611  -0.0001183   0.0000385   0.0009465   0.0001414  -0.0002455
   26  -0.0005248   0.0006629  -0.0001125  -0.0007709   0.0002157  -0.0001632
   27   0.0000511  -0.0001189   0.0000330  -0.0016813  -0.0003738  -0.0004095
   28  -0.0000301   0.0001110   0.0000083   0.0000921   0.0000435   0.0000758
   29   0.0000216   0.0000336   0.0000004   0.0000182  -0.0000158   0.0000266
   30  -0.0000223   0.0000012  -0.0000097   0.0000813   0.0000180  -0.0000013
   31  -0.0000353   0.0001148  -0.0000379  -0.0006892  -0.0000989  -0.0000256
   32   0.0000856  -0.0000244   0.0000235  -0.0000610  -0.0000338  -0.0000219
   33   0.0000062  -0.0000430   0.0000298   0.0003332   0.0000929   0.0000059
   34  -0.0000090   0.0000006  -0.0000207  -0.0000011  -0.0000231  -0.0000103
   35   0.0000146  -0.0000122   0.0000147   0.0000152   0.0000101  -0.0000011
   36   0.0000051   0.0000024  -0.0000234  -0.0000502  -0.0000357   0.0000008
   37  -0.0000001   0.0000032   0.0000090  -0.0000157  -0.0000013  -0.0000052
   38  -0.0000095   0.0000295  -0.0000166  -0.0001847  -0.0000261  -0.0000078
   39  -0.0000030   0.0000245  -0.0000159  -0.0001673  -0.0000385  -0.0000080
   40   0.0000128  -0.0000149   0.0000012   0.0000371  -0.0000016   0.0000005
   41  -0.0000615   0.0000288  -0.0000324  -0.0000157  -0.0000010  -0.0000092
   42   0.0000202  -0.0000070   0.0000254   0.0000097   0.0000101  -0.0000017
   43   0.0000404  -0.0001584   0.0000244   0.0002476   0.0000101  -0.0000418
   44   0.0009901  -0.0005612   0.0001301  -0.0004570  -0.0003300   0.0001402
   45  -0.0001667   0.0000987  -0.0000373   0.0000988   0.0000303  -0.0000287
   46  -0.0000762   0.0000997  -0.0000241  -0.0002191  -0.0000619   0.0000373
   47  -0.0003849   0.0001921  -0.0000562   0.0001298   0.0000865  -0.0000445
   48   0.0000581  -0.0000337   0.0000012  -0.0000136  -0.0000179   0.0000196
   49  -0.0007329   0.0002835  -0.0001078   0.0000542   0.0000928  -0.0000314
   50  -0.0006483   0.0002170  -0.0000801   0.0002562   0.0001190  -0.0000665
   51   0.0002037  -0.0000603  -0.0000357  -0.0000605   0.0000007  -0.0000020
   52   0.0015256  -0.0003990   0.0001760  -0.0001730  -0.0002506   0.0001066
   53   0.0003031  -0.0000059   0.0000343  -0.0000909  -0.0000292  -0.0000098
   54  -0.0002364   0.0000375   0.0000874  -0.0000339  -0.0000292   0.0000150
   55   0.0000120  -0.0000124  -0.0000002   0.0000680  -0.0000005  -0.0000240
   56  -0.0001972   0.0000755  -0.0000255  -0.0000281   0.0000496   0.0000001
   57   0.0000005   0.0000035   0.0000035   0.0000184  -0.0000008  -0.0000081
   58   0.0000288  -0.0000114   0.0000036  -0.0000143  -0.0000018   0.0000040
   59   0.0000005   0.0000004   0.0000007   0.0000256   0.0000023  -0.0000041
   60   0.0000060  -0.0000080   0.0000009  -0.0000100   0.0000036   0.0000078
   61  -0.0000517   0.0000205  -0.0000083  -0.0000034   0.0000102  -0.0000042
   62   0.0000298  -0.0000045   0.0000043  -0.0000040  -0.0000072   0.0000032
   63  -0.0000017   0.0000007   0.0000012   0.0000011   0.0000034   0.0000008
   64  -0.0000028  -0.0000034  -0.0000007  -0.0000150  -0.0000008   0.0000041
   65   0.0000189  -0.0000074   0.0000012   0.0000154  -0.0000010  -0.0000020
   66   0.0000109  -0.0000041   0.0000013  -0.0000009  -0.0000045  -0.0000024
           13          14          15          16          17          18
    1  -0.2277014  -0.0067527  -0.0023860  -0.0266554   0.0164175  -0.0053538
    2   0.0015036  -0.0990605  -0.0008411   0.0478211  -0.0070521   0.0074918
    3  -0.0043579  -0.0017848  -0.1016983  -0.0120728   0.0068586   0.0155381
    4  -0.0087523  -0.0276762  -0.0321550   0.0010203   0.0026542   0.0039494
    5  -0.0019584  -0.0022972  -0.0001591   0.0021129  -0.0002611   0.0007290
    6   0.0022375  -0.0001003   0.0008202  -0.0004085   0.0016536   0.0009786
    7  -0.0014816   0.0354495  -0.0053987  -0.0119132   0.0030902  -0.0013675
    8  -0.0047216   0.0008900  -0.0005028   0.0002643   0.0026935  -0.0001925
    9   0.0005524   0.0007375  -0.0044448  -0.0008961   0.0002032   0.0029666
   10  -0.0118291  -0.0169058   0.0380120   0.0021739   0.0007339  -0.0042207
   11  -0.0029636  -0.0023324   0.0014236   0.0022961  -0.0006718  -0.0002520
   12  -0.0028136   0.0000541   0.0029398  -0.0005329  -0.0011602   0.0012738
   13   0.7321076  -0.0696503   0.0274240  -0.2458818   0.1737362  -0.0417989
   14  -0.0696503   0.7493621  -0.1037741   0.1297200  -0.3801299   0.0653179
   15   0.0274240  -0.1037741   0.3155467  -0.0321352   0.0648580  -0.1303266
   16  -0.2458818   0.1297200  -0.0321352   0.2846229  -0.1816833   0.0428469
   17   0.1737362  -0.3801299   0.0648580  -0.1816833   0.4855133  -0.1011085
   18  -0.0417989   0.0653179  -0.1303266   0.0428469  -0.1011085   0.0920379
   19  -0.2431253  -0.0350123   0.0036430   0.0475891   0.0028426  -0.0005414
   20  -0.1023953  -0.2517976   0.0402286   0.0120611  -0.0979419   0.0253387
   21   0.0192423   0.0415135  -0.0671839  -0.0020571   0.0256979   0.0127884
   22   0.0190024  -0.0145316   0.0033481  -0.0009290  -0.0072683   0.0014919
   23   0.0284605  -0.0250592   0.0048034  -0.0054224  -0.0030177   0.0022535
   24  -0.0056996   0.0047180  -0.0068603   0.0010669   0.0024570   0.0081462
   25   0.0019546  -0.0303247   0.0081667  -0.0067272   0.0127751  -0.0029180
   26  -0.0252238  -0.0003101  -0.0029883   0.0021678   0.0039345  -0.0011752
   27   0.0060091  -0.0033823  -0.0125702  -0.0009522  -0.0009521  -0.0023292
   28  -0.0030072   0.0095434   0.0026715   0.0023825  -0.0032248   0.0005704
   29  -0.0015035   0.0025603   0.0011514   0.0001737  -0.0005122   0.0001613
   30   0.0001654  -0.0008531   0.0003263   0.0001143  -0.0001537  -0.0000941
   31  -0.0034611   0.0086433  -0.0070542   0.0029010  -0.0037313   0.0011036
   32  -0.0002474  -0.0007035  -0.0017660  -0.0000204   0.0001155   0.0001576
   33   0.0017097  -0.0025804   0.0020666  -0.0004647   0.0012084  -0.0007392
   34   0.0001092  -0.0010304   0.0000086  -0.0003251   0.0003884  -0.0000376
   35  -0.0002660  -0.0000667   0.0000600   0.0001190   0.0000082   0.0000825
   36  -0.0004715   0.0004769  -0.0005495   0.0001031  -0.0002405   0.0003121
   37   0.0004959   0.0010939  -0.0005787   0.0001684  -0.0005156   0.0001243
   38  -0.0008231   0.0031411  -0.0017141   0.0009680  -0.0012218   0.0002611
   39  -0.0009468   0.0014902  -0.0015098   0.0005127  -0.0007555   0.0003101
   40   0.0002768  -0.0003563   0.0000927   0.0001104   0.0000386   0.0000384
   41  -0.0004186  -0.0012391   0.0005919  -0.0007966   0.0009561  -0.0003089
   42  -0.0001036  -0.0002586   0.0001805  -0.0001615   0.0001694   0.0000423
   43  -0.0051746  -0.0060322   0.0011682  -0.0008391   0.0051521  -0.0007055
   44  -0.0048616   0.0375812  -0.0078615   0.0251990  -0.0167689   0.0024789
   45   0.0012592  -0.0056773   0.0034046  -0.0041377   0.0022022  -0.0013562
   46   0.0034221   0.0032262  -0.0005502  -0.0042934  -0.0015357   0.0006211
   47   0.0022203  -0.0125277   0.0026759  -0.0102523   0.0061420  -0.0008234
   48  -0.0006394   0.0021888  -0.0007226   0.0017361  -0.0009970   0.0000743
   49   0.0022544  -0.0157618   0.0038819  -0.0417945   0.0020604   0.0021039
   50  -0.0005651  -0.0215440   0.0046929  -0.0137423   0.0201749  -0.0019024
   51   0.0002677   0.0046140  -0.0021570   0.0057863  -0.0018963   0.0094885
   52  -0.0091244   0.0372869  -0.0083687   0.0012884  -0.0207094   0.0033862
   53   0.0081262   0.0067315  -0.0015023  -0.0053088  -0.0124374   0.0011438
   54  -0.0017482  -0.0028179   0.0028737   0.0008349   0.0016686  -0.0092956
   55  -0.0007676  -0.0015160   0.0002401  -0.0009647  -0.0001552   0.0003694
   56   0.0023489  -0.0029771   0.0006216  -0.0082600  -0.0003160   0.0007432
   57  -0.0002027  -0.0004493   0.0000198   0.0008448   0.0007338   0.0000616
   58  -0.0000320   0.0010183  -0.0002200   0.0005222  -0.0006246   0.0002779
   59  -0.0001926  -0.0006611   0.0001831   0.0004446   0.0004160  -0.0002686
   60   0.0000961   0.0005322  -0.0001398  -0.0002460  -0.0004742   0.0000174
   61   0.0004978  -0.0010384   0.0002336  -0.0020552   0.0001191   0.0002440
   62  -0.0002656   0.0005727  -0.0001211   0.0014087   0.0001422  -0.0001713
   63   0.0000039  -0.0000409   0.0000187  -0.0001656  -0.0000088   0.0000710
   64   0.0002177   0.0006072  -0.0000439  -0.0004005  -0.0005599  -0.0001840
   65  -0.0003394  -0.0001328  -0.0000600   0.0007301   0.0002345   0.0000436
   66  -0.0001853   0.0000760  -0.0000343   0.0003844   0.0000360   0.0000339
           19          20          21          22          23          24
    1  -0.0157548  -0.0057365  -0.0000350  -0.0002449   0.0002665   0.0000951
    2  -0.0399665  -0.0033910   0.0022709  -0.0028071  -0.0000011  -0.0008130
    3   0.0086322   0.0036722   0.0129735   0.0005957  -0.0010356  -0.0043538
    4  -0.0055160   0.0005267   0.0018076  -0.0002286  -0.0000102  -0.0007385
    5  -0.0014012   0.0001532   0.0005283   0.0002345   0.0003620  -0.0007061
    6   0.0001761   0.0006259  -0.0004399   0.0000691   0.0000421   0.0002616
    7   0.0017564  -0.0015103   0.0002817  -0.0021321  -0.0012961   0.0002474
    8   0.0002817   0.0007665  -0.0002941  -0.0011222   0.0010252  -0.0000589
    9   0.0000378  -0.0002703  -0.0005216   0.0002239  -0.0000154   0.0009734
   10  -0.0065180  -0.0002130  -0.0018226  -0.0002575   0.0003228   0.0005885
   11  -0.0014949  -0.0001677  -0.0003979   0.0002215   0.0006556   0.0004141
   12  -0.0001259  -0.0006621  -0.0000373  -0.0001623  -0.0001100   0.0001016
   13  -0.2431253  -0.1023953   0.0192423   0.0190024   0.0284605  -0.0056996
   14  -0.0350123  -0.2517976   0.0415135  -0.0145316  -0.0250592   0.0047180
   15   0.0036430   0.0402286  -0.0671839   0.0033481   0.0048034  -0.0068603
   16   0.0475891   0.0120611  -0.0020571  -0.0009290  -0.0054224   0.0010669
   17   0.0028426  -0.0979419   0.0256979  -0.0072683  -0.0030177   0.0024570
   18  -0.0005414   0.0253387   0.0127884   0.0014919   0.0022535   0.0081462
   19   0.6923817  -0.0576770   0.0163028  -0.2443478   0.1881121  -0.0417482
   20  -0.0576770   0.8111316  -0.1506994   0.1983855  -0.3203121   0.0650786
   21   0.0163028  -0.1506994   0.1282189  -0.0441940   0.0661280  -0.0290759
   22  -0.2443478   0.1983855  -0.0441940   0.2511725  -0.1956406   0.0434038
   23   0.1881121  -0.3203121   0.0661280  -0.1956406   0.3343710  -0.0686022
   24  -0.0417482   0.0650786  -0.0290759   0.0434038  -0.0686022   0.0307034
   25  -0.1645752   0.0160750   0.0002183  -0.0196766  -0.0099420   0.0020237
   26  -0.0226616  -0.1294927   0.0166626   0.0283514   0.0127898  -0.0023043
   27   0.0082697   0.0177863  -0.0694211  -0.0066482  -0.0033780   0.0014784
   28  -0.0231900  -0.0281250   0.0321932   0.0005125   0.0001490   0.0002067
   29  -0.0090116  -0.0075652   0.0121273   0.0000829   0.0004947  -0.0002466
   30   0.0026689   0.0010595   0.0060028   0.0010597   0.0001195  -0.0003253
   31  -0.0225659  -0.0432043  -0.0190186   0.0004856  -0.0014986   0.0000310
   32  -0.0092448  -0.0147318  -0.0087948   0.0013933   0.0021212   0.0008742
   33   0.0013997   0.0074012   0.0062590  -0.0003308   0.0000044  -0.0001658
   34   0.0009415   0.0017866   0.0002986   0.0000502   0.0001888  -0.0003915
   35   0.0017056   0.0019875   0.0018233  -0.0001731  -0.0002385  -0.0000136
   36  -0.0004395   0.0001013   0.0032785   0.0000059  -0.0000133  -0.0004232
   37  -0.0002449  -0.0011949  -0.0007271   0.0002869   0.0002151   0.0004135
   38  -0.0030251  -0.0074449  -0.0033627  -0.0001216  -0.0002104  -0.0000339
   39  -0.0025743  -0.0069385  -0.0009218   0.0004301   0.0000817   0.0000616
   40   0.0013244  -0.0004634   0.0001427   0.0002778  -0.0002648  -0.0001821
   41   0.0013320   0.0024230   0.0008224  -0.0015267  -0.0011450  -0.0009296
   42   0.0013511   0.0011119   0.0000276  -0.0004539  -0.0001766   0.0003565
   43  -0.0095016   0.0126198  -0.0038494  -0.0002403  -0.0009880   0.0004367
   44  -0.0294171   0.0047959  -0.0019169  -0.0071493  -0.0025166   0.0006169
   45   0.0053232  -0.0025673  -0.0049360   0.0014840  -0.0002331  -0.0007684
   46  -0.0079310   0.0097717  -0.0011892  -0.0032642  -0.0020368   0.0002869
   47   0.0072417   0.0044696  -0.0005289   0.0007861   0.0002742  -0.0002471
   48  -0.0014952  -0.0005608   0.0030626  -0.0002279   0.0001314   0.0000349
   49   0.0048831   0.0028872  -0.0004308   0.0007065   0.0000167  -0.0001106
   50   0.0069785   0.0091250  -0.0019208   0.0010171   0.0004999  -0.0002521
   51  -0.0013101  -0.0017438   0.0013225  -0.0002122  -0.0000907  -0.0000466
   52  -0.0063005  -0.0137389   0.0029155  -0.0012486  -0.0007278   0.0000900
   53  -0.0000433  -0.0034476   0.0006098  -0.0001961  -0.0000927   0.0000165
   54   0.0003815   0.0011421  -0.0011965   0.0001028   0.0000535  -0.0001699
   55   0.0008586   0.0004725  -0.0001419   0.0001408   0.0001613  -0.0000448
   56   0.0002615   0.0010999  -0.0002061   0.0000089  -0.0000576   0.0000502
   57   0.0000931   0.0001922  -0.0002873   0.0000197   0.0000476   0.0000889
   58  -0.0002037  -0.0004351   0.0000805  -0.0000442  -0.0000241   0.0000128
   59   0.0003183   0.0002976  -0.0000968   0.0000586   0.0000436  -0.0000075
   60  -0.0001933  -0.0002613   0.0000659  -0.0000253  -0.0000207   0.0000021
   61   0.0002950   0.0003777  -0.0000641   0.0000250  -0.0000035  -0.0000002
   62  -0.0002615  -0.0000588   0.0000401  -0.0000340  -0.0000175   0.0000019
   63   0.0000861  -0.0000365  -0.0000085   0.0000152   0.0000069   0.0000013
   64  -0.0002550  -0.0002700   0.0000465  -0.0000463  -0.0000379   0.0000124
   65   0.0001430   0.0001015  -0.0000056   0.0000307   0.0000311  -0.0000125
   66   0.0000627   0.0000017   0.0000300   0.0000046   0.0000034  -0.0000206
           25          26          27          28          29          30
    1   0.0024000   0.0012746  -0.0006594   0.0000317  -0.0000356   0.0000217
    2   0.0037347  -0.0012645   0.0021853  -0.0013417  -0.0005825   0.0001863
    3  -0.0010281   0.0023629   0.0099171  -0.0017319  -0.0006525  -0.0002525
    4   0.0006670  -0.0000036   0.0019190  -0.0006243  -0.0002806  -0.0000201
    5   0.0001456   0.0002405   0.0002004  -0.0001125  -0.0000512  -0.0000042
    6   0.0001808  -0.0001407  -0.0004183   0.0000625   0.0000421  -0.0000232
    7   0.0000611  -0.0005248   0.0000511  -0.0000301   0.0000216  -0.0000223
    8  -0.0001183   0.0006629  -0.0001189   0.0001110   0.0000336   0.0000012
    9   0.0000385  -0.0001125   0.0000330   0.0000083   0.0000004  -0.0000097
   10   0.0009465  -0.0007709  -0.0016813   0.0000921   0.0000182   0.0000813
   11   0.0001414   0.0002157  -0.0003738   0.0000435  -0.0000158   0.0000180
   12  -0.0002455  -0.0001632  -0.0004095   0.0000758   0.0000266  -0.0000013
   13   0.0019546  -0.0252238   0.0060091  -0.0030072  -0.0015035   0.0001654
   14  -0.0303247  -0.0003101  -0.0033823   0.0095434   0.0025603  -0.0008531
   15   0.0081667  -0.0029883  -0.0125702   0.0026715   0.0011514   0.0003263
   16  -0.0067272   0.0021678  -0.0009522   0.0023825   0.0001737   0.0001143
   17   0.0127751   0.0039345  -0.0009521  -0.0032248  -0.0005122  -0.0001537
   18  -0.0029180  -0.0011752  -0.0023292   0.0005704   0.0001613  -0.0000941
   19  -0.1645752  -0.0226616   0.0082697  -0.0231900  -0.0090116   0.0026689
   20   0.0160750  -0.1294927   0.0177863  -0.0281250  -0.0075652   0.0010595
   21   0.0002183   0.0166626  -0.0694211   0.0321932   0.0121273   0.0060028
   22  -0.0196766   0.0283514  -0.0066482   0.0005125   0.0000829   0.0010597
   23  -0.0099420   0.0127898  -0.0033780   0.0001490   0.0004947   0.0001195
   24   0.0020237  -0.0023043   0.0014784   0.0002067  -0.0002466  -0.0003253
   25   0.4918350  -0.0313544  -0.0049288  -0.0587667  -0.0020493   0.0161614
   26  -0.0313544   0.5176917  -0.0396734   0.0005375  -0.0903396   0.0812466
   27  -0.0049288  -0.0396734   0.5778868   0.0126932   0.0838736  -0.2831372
   28  -0.0587667   0.0005375   0.0126932   0.0810922   0.0094971  -0.0209202
   29  -0.0020493  -0.0903396   0.0838736   0.0094971   0.1001127  -0.0866354
   30   0.0161614   0.0812466  -0.2831372  -0.0209202  -0.0866354   0.3029177
   31  -0.0886372   0.0066580   0.0001043   0.0017447   0.0014749   0.0002500
   32  -0.0071213  -0.1460033  -0.0517659   0.0012226   0.0102698   0.0069015
   33  -0.0104953  -0.0504342  -0.1390204  -0.0031092  -0.0308523  -0.0236971
   34  -0.0006078   0.0005598  -0.0049620   0.0008847  -0.0009303  -0.0006152
   35   0.0030401   0.0090664  -0.0315380  -0.0008240  -0.0048590  -0.0046343
   36   0.0042938   0.0071433  -0.0223179  -0.0005118  -0.0044469  -0.0014940
   37  -0.0032173  -0.0014427   0.0010877   0.0004563   0.0000013  -0.0004191
   38  -0.0234131  -0.0090449   0.0066501   0.0001858   0.0011369   0.0000498
   39  -0.0204730  -0.0062303   0.0041037  -0.0003339   0.0010675   0.0005465
   40   0.0023324  -0.0074192  -0.0004042   0.0001329   0.0005867   0.0009382
   41   0.0212129  -0.0203159   0.0053435  -0.0004090   0.0016176   0.0001492
   42   0.0179679  -0.0176285   0.0040141   0.0005383   0.0011244   0.0013551
   43  -0.1278219   0.0341508  -0.0105703   0.0037422  -0.0007986   0.0022658
   44   0.0537878  -0.1365332   0.0088673   0.0103528  -0.0113743   0.0039010
   45  -0.0093638   0.0052359  -0.0969272  -0.0260459   0.0293599  -0.0047906
   46  -0.0467336  -0.0136837   0.0042969  -0.0018133  -0.0006727  -0.0003020
   47   0.0049998   0.0123422   0.0009379   0.0000181   0.0013968  -0.0014684
   48  -0.0006483   0.0010528   0.0126873   0.0021102  -0.0039021   0.0026073
   49   0.0081433   0.0291454  -0.0033841  -0.0023175   0.0033138  -0.0015137
   50  -0.0091539  -0.0203234   0.0040962   0.0019847  -0.0019449   0.0001375
   51   0.0009838   0.0056064   0.0099457   0.0008472  -0.0015874   0.0002456
   52   0.0085080   0.0031635  -0.0005622  -0.0014969   0.0001705  -0.0000111
   53   0.0011775  -0.0011468  -0.0001929  -0.0003855   0.0004284  -0.0001966
   54  -0.0005350  -0.0005193  -0.0025813  -0.0003314   0.0007281  -0.0000489
   55  -0.0012249  -0.0041099   0.0002236   0.0003511  -0.0003969   0.0002440
   56  -0.0021502  -0.0011197   0.0015795   0.0004316  -0.0004888   0.0000928
   57   0.0002492   0.0020347   0.0096751   0.0011481  -0.0015032  -0.0000577
   58   0.0007060   0.0011309   0.0014245   0.0000119  -0.0000870  -0.0000591
   59  -0.0008405  -0.0008808  -0.0007466   0.0000638  -0.0000143   0.0000487
   60   0.0003336   0.0001458   0.0000873  -0.0000579   0.0000187  -0.0000116
   61  -0.0001172  -0.0000372   0.0002942   0.0000880   0.0000135  -0.0000447
   62  -0.0001005   0.0000508  -0.0006744  -0.0000584   0.0000785   0.0000001
   63   0.0000994   0.0000282   0.0000599  -0.0000063   0.0000073  -0.0000239
   64   0.0005518   0.0000923  -0.0016207  -0.0002767   0.0004120  -0.0000434
   65  -0.0005216  -0.0002195   0.0012763   0.0003399  -0.0003816   0.0000340
   66  -0.0000815  -0.0001494  -0.0007563  -0.0000772   0.0001376  -0.0000344
           31          32          33          34          35          36
    1  -0.0001110  -0.0001012   0.0000908  -0.0000061   0.0000064  -0.0000141
    2  -0.0008282   0.0001324   0.0003215   0.0000539  -0.0000208  -0.0001066
    3   0.0022623   0.0004957  -0.0007023   0.0000156  -0.0000927  -0.0000233
    4   0.0001082   0.0000973   0.0000107   0.0000119  -0.0000049  -0.0000303
    5   0.0000108  -0.0000185   0.0000159   0.0000094  -0.0000107  -0.0000017
    6  -0.0000892  -0.0000265  -0.0000080   0.0000095  -0.0000024   0.0000109
    7  -0.0000353   0.0000856   0.0000062  -0.0000090   0.0000146   0.0000051
    8   0.0001148  -0.0000244  -0.0000430   0.0000006  -0.0000122   0.0000024
    9  -0.0000379   0.0000235   0.0000298  -0.0000207   0.0000147  -0.0000234
   10  -0.0006892  -0.0000610   0.0003332  -0.0000011   0.0000152  -0.0000502
   11  -0.0000989  -0.0000338   0.0000929  -0.0000231   0.0000101  -0.0000357
   12  -0.0000256  -0.0000219   0.0000059  -0.0000103  -0.0000011   0.0000008
   13  -0.0034611  -0.0002474   0.0017097   0.0001092  -0.0002660  -0.0004715
   14   0.0086433  -0.0007035  -0.0025804  -0.0010304  -0.0000667   0.0004769
   15  -0.0070542  -0.0017660   0.0020666   0.0000086   0.0000600  -0.0005495
   16   0.0029010  -0.0000204  -0.0004647  -0.0003251   0.0001190   0.0001031
   17  -0.0037313   0.0001155   0.0012084   0.0003884   0.0000082  -0.0002405
   18   0.0011036   0.0001576  -0.0007392  -0.0000376   0.0000825   0.0003121
   19  -0.0225659  -0.0092448   0.0013997   0.0009415   0.0017056  -0.0004395
   20  -0.0432043  -0.0147318   0.0074012   0.0017866   0.0019875   0.0001013
   21  -0.0190186  -0.0087948   0.0062590   0.0002986   0.0018233   0.0032785
   22   0.0004856   0.0013933  -0.0003308   0.0000502  -0.0001731   0.0000059
   23  -0.0014986   0.0021212   0.0000044   0.0001888  -0.0002385  -0.0000133
   24   0.0000310   0.0008742  -0.0001658  -0.0003915  -0.0000136  -0.0004232
   25  -0.0886372  -0.0071213  -0.0104953  -0.0006078   0.0030401   0.0042938
   26   0.0066580  -0.1460033  -0.0504342   0.0005598   0.0090664   0.0071433
   27   0.0001043  -0.0517659  -0.1390204  -0.0049620  -0.0315380  -0.0223179
   28   0.0017447   0.0012226  -0.0031092   0.0008847  -0.0008240  -0.0005118
   29   0.0014749   0.0102698  -0.0308523  -0.0009303  -0.0048590  -0.0044469
   30   0.0002500   0.0069015  -0.0236971  -0.0006152  -0.0046343  -0.0014940
   31   0.6418512  -0.0121544  -0.0176483  -0.0630803  -0.0071199   0.0215204
   32  -0.0121544   0.5563065  -0.0570361  -0.0064277  -0.0867459   0.0771664
   33  -0.0176483  -0.0570361   0.5886440   0.0227671   0.0806387  -0.2994512
   34  -0.0630803  -0.0064277   0.0227671   0.0582152   0.0073158  -0.0244735
   35  -0.0071199  -0.0867459   0.0806387   0.0073158   0.0902511  -0.0837537
   36   0.0215204   0.0771664  -0.2994512  -0.0244735  -0.0837537   0.3271723
   37  -0.2888311  -0.1008270   0.0337933   0.0009575   0.0005065   0.0005427
   38  -0.0932846  -0.1014010   0.0141013  -0.0095469  -0.0043638   0.0014347
   39   0.0372026   0.0165479  -0.0686224   0.0325399   0.0131701  -0.0026423
   40  -0.1811921   0.1254362  -0.0316913   0.0030114  -0.0034853  -0.0002174
   41   0.1233419  -0.1889250   0.0330947   0.0070834  -0.0074314   0.0022818
   42  -0.0340548   0.0342785  -0.0703197  -0.0254777   0.0242836  -0.0041648
   43   0.0102616   0.0091179   0.0080059   0.0001448  -0.0010166  -0.0017530
   44   0.0191637  -0.0254943   0.0028796  -0.0001989   0.0022689   0.0014071
   45   0.0182649  -0.0173564   0.0074583   0.0011514  -0.0005125  -0.0005300
   46  -0.0032400  -0.0027207  -0.0014427  -0.0004815   0.0003084   0.0009962
   47  -0.0005623  -0.0044308  -0.0019937   0.0006950   0.0002293  -0.0004470
   48  -0.0005930  -0.0004770   0.0002370  -0.0006680   0.0002862   0.0005938
   49  -0.0039151   0.0017076  -0.0028588  -0.0000557  -0.0001164   0.0004474
   50   0.0027861  -0.0001045   0.0029630   0.0000354   0.0000322  -0.0008377
   51  -0.0016075   0.0001987  -0.0018943  -0.0001216   0.0003839   0.0005920
   52  -0.0020857  -0.0001125  -0.0002866   0.0002646  -0.0000445   0.0001138
   53  -0.0003647  -0.0000224  -0.0001406   0.0000292  -0.0000670  -0.0000174
   54   0.0006486  -0.0003468   0.0006126  -0.0000100  -0.0001351  -0.0002072
   55   0.0009700  -0.0000645   0.0006277  -0.0000022   0.0000370  -0.0001563
   56   0.0002518  -0.0002365  -0.0000636  -0.0000011  -0.0000630  -0.0000390
   57  -0.0012439   0.0010154  -0.0006847  -0.0000293  -0.0000501  -0.0001312
   58  -0.0004502   0.0001999  -0.0002627   0.0000043  -0.0000031   0.0000166
   59   0.0004088  -0.0001430   0.0003269   0.0000090   0.0000067  -0.0000610
   60  -0.0001129  -0.0000000  -0.0000660   0.0000132  -0.0000088   0.0000073
   61  -0.0000411   0.0000047  -0.0001198  -0.0000275  -0.0000057   0.0000217
   62  -0.0000058  -0.0000498   0.0000424   0.0000148   0.0000089   0.0000117
   63   0.0000140  -0.0000021   0.0000318   0.0000231   0.0000003  -0.0000252
   64   0.0000130  -0.0001626  -0.0000340   0.0000009  -0.0000092   0.0000506
   65  -0.0000014   0.0001234   0.0000530  -0.0000118   0.0000098  -0.0000252
   66   0.0000842  -0.0000657   0.0000261  -0.0000096  -0.0000010   0.0000156
           37          38          39          40          41          42
    1   0.0000018   0.0000048  -0.0000280   0.0000082   0.0000027  -0.0000138
    2  -0.0000014  -0.0003007  -0.0002287   0.0000841  -0.0001241   0.0000114
    3   0.0000569   0.0005250   0.0004108  -0.0000859   0.0000076  -0.0000809
    4  -0.0000005  -0.0000052  -0.0000035   0.0000083  -0.0000262  -0.0000037
    5  -0.0000104  -0.0000014  -0.0000080  -0.0000001   0.0000238  -0.0000177
    6  -0.0000034  -0.0000202  -0.0000070   0.0000019   0.0000057   0.0000005
    7  -0.0000001  -0.0000095  -0.0000030   0.0000128  -0.0000615   0.0000202
    8   0.0000032   0.0000295   0.0000245  -0.0000149   0.0000288  -0.0000070
    9   0.0000090  -0.0000166  -0.0000159   0.0000012  -0.0000324   0.0000254
   10  -0.0000157  -0.0001847  -0.0001673   0.0000371  -0.0000157   0.0000097
   11  -0.0000013  -0.0000261  -0.0000385  -0.0000016  -0.0000010   0.0000101
   12  -0.0000052  -0.0000078  -0.0000080   0.0000005  -0.0000092  -0.0000017
   13   0.0004959  -0.0008231  -0.0009468   0.0002768  -0.0004186  -0.0001036
   14   0.0010939   0.0031411   0.0014902  -0.0003563  -0.0012391  -0.0002586
   15  -0.0005787  -0.0017141  -0.0015098   0.0000927   0.0005919   0.0001805
   16   0.0001684   0.0009680   0.0005127   0.0001104  -0.0007966  -0.0001615
   17  -0.0005156  -0.0012218  -0.0007555   0.0000386   0.0009561   0.0001694
   18   0.0001243   0.0002611   0.0003101   0.0000384  -0.0003089   0.0000423
   19  -0.0002449  -0.0030251  -0.0025743   0.0013244   0.0013320   0.0013511
   20  -0.0011949  -0.0074449  -0.0069385  -0.0004634   0.0024230   0.0011119
   21  -0.0007271  -0.0033627  -0.0009218   0.0001427   0.0008224   0.0000276
   22   0.0002869  -0.0001216   0.0004301   0.0002778  -0.0015267  -0.0004539
   23   0.0002151  -0.0002104   0.0000817  -0.0002648  -0.0011450  -0.0001766
   24   0.0004135  -0.0000339   0.0000616  -0.0001821  -0.0009296   0.0003565
   25  -0.0032173  -0.0234131  -0.0204730   0.0023324   0.0212129   0.0179679
   26  -0.0014427  -0.0090449  -0.0062303  -0.0074192  -0.0203159  -0.0176285
   27   0.0010877   0.0066501   0.0041037  -0.0004042   0.0053435   0.0040141
   28   0.0004563   0.0001858  -0.0003339   0.0001329  -0.0004090   0.0005383
   29   0.0000013   0.0011369   0.0010675   0.0005867   0.0016176   0.0011244
   30  -0.0004191   0.0000498   0.0005465   0.0009382   0.0001492   0.0013551
   31  -0.2888311  -0.0932846   0.0372026  -0.1811921   0.1233419  -0.0340548
   32  -0.1008270  -0.1014010   0.0165479   0.1254362  -0.1889250   0.0342785
   33   0.0337933   0.0141013  -0.0686224  -0.0316913   0.0330947  -0.0703197
   34   0.0009575  -0.0095469   0.0325399   0.0030114   0.0070834  -0.0254777
   35   0.0005065  -0.0043638   0.0131701  -0.0034853  -0.0074314   0.0242836
   36   0.0005427   0.0014347  -0.0026423  -0.0002174   0.0022818  -0.0041648
   37   0.3126798   0.1061233  -0.0388475  -0.0198413  -0.0082650   0.0030499
   38   0.1061233   0.1070036  -0.0143133   0.0249500   0.0127546  -0.0041421
   39  -0.0388475  -0.0143133   0.0680594  -0.0072618  -0.0035987   0.0004706
   40  -0.0198413   0.0249500  -0.0072618   0.1947409  -0.1394687   0.0380297
   41  -0.0082650   0.0127546  -0.0035987  -0.1394687   0.2040168  -0.0341860
   42   0.0030499  -0.0041421   0.0004706   0.0380297  -0.0341860   0.0701062
   43  -0.0010343  -0.0047258  -0.0006638  -0.0024025  -0.0051754  -0.0031018
   44   0.0002286  -0.0034250  -0.0006768  -0.0026616  -0.0022429  -0.0035939
   45   0.0000550   0.0004993   0.0006344  -0.0003762  -0.0044312  -0.0030952
   46  -0.0019445   0.0025017   0.0006255   0.0006550   0.0012138   0.0008905
   47   0.0042400   0.0020379  -0.0000098   0.0025187   0.0010072   0.0001272
   48   0.0012663   0.0004200  -0.0009396   0.0008823   0.0005642   0.0005386
   49   0.0001767   0.0010672   0.0002547   0.0006182   0.0014415   0.0014385
   50  -0.0001691   0.0013570   0.0004103   0.0006411  -0.0014650  -0.0009631
   51   0.0001263  -0.0003421   0.0000849   0.0000214   0.0004538   0.0005523
   52  -0.0000815  -0.0008125  -0.0003428  -0.0002496   0.0007886   0.0002326
   53  -0.0000002   0.0000740   0.0000140   0.0000080   0.0002134   0.0000830
   54  -0.0000105   0.0000231  -0.0000307  -0.0000606  -0.0002181  -0.0002152
   55  -0.0000746   0.0001488   0.0001030   0.0001395  -0.0004937  -0.0003262
   56   0.0000461  -0.0001201  -0.0000092  -0.0001662   0.0000722  -0.0000690
   57   0.0000544  -0.0000259   0.0000082   0.0001157   0.0003934   0.0002199
   58   0.0000300  -0.0000129  -0.0000004   0.0000220   0.0001661   0.0001065
   59  -0.0000175   0.0000599   0.0000204   0.0000228  -0.0001638  -0.0001315
   60   0.0000061  -0.0000233  -0.0000079  -0.0000089   0.0000508   0.0000181
   61   0.0000293   0.0000500   0.0000030   0.0000241   0.0000355   0.0000360
   62  -0.0000013  -0.0000539  -0.0000181  -0.0000309  -0.0000106  -0.0000039
   63   0.0000111   0.0000127   0.0000199   0.0000044  -0.0000017  -0.0000197
   64   0.0000032  -0.0000347  -0.0000255  -0.0000465   0.0000387   0.0000260
   65  -0.0000117   0.0000197  -0.0000012   0.0000469  -0.0000496  -0.0000215
   66  -0.0000052   0.0000251  -0.0000048   0.0000194  -0.0000434  -0.0000107
           43          44          45          46          47          48
    1   0.0000215   0.0002312  -0.0000360  -0.0002590  -0.0001788   0.0000322
    2   0.0008373  -0.0021888   0.0004035  -0.0004861   0.0007813  -0.0001791
    3  -0.0000877   0.0006424   0.0000813  -0.0000458  -0.0002357  -0.0001193
    4   0.0002465  -0.0003865   0.0000195  -0.0002478   0.0001013  -0.0000267
    5   0.0000132  -0.0003419   0.0000754  -0.0000623   0.0001069  -0.0000115
    6   0.0000361  -0.0000309  -0.0000101  -0.0000190   0.0000123   0.0000116
    7   0.0000404   0.0009901  -0.0001667  -0.0000762  -0.0003849   0.0000581
    8  -0.0001584  -0.0005612   0.0000987   0.0000997   0.0001921  -0.0000337
    9   0.0000244   0.0001301  -0.0000373  -0.0000241  -0.0000562   0.0000012
   10   0.0002476  -0.0004570   0.0000988  -0.0002191   0.0001298  -0.0000136
   11   0.0000101  -0.0003300   0.0000303  -0.0000619   0.0000865  -0.0000179
   12  -0.0000418   0.0001402  -0.0000287   0.0000373  -0.0000445   0.0000196
   13  -0.0051746  -0.0048616   0.0012592   0.0034221   0.0022203  -0.0006394
   14  -0.0060322   0.0375812  -0.0056773   0.0032262  -0.0125277   0.0021888
   15   0.0011682  -0.0078615   0.0034046  -0.0005502   0.0026759  -0.0007226
   16  -0.0008391   0.0251990  -0.0041377  -0.0042934  -0.0102523   0.0017361
   17   0.0051521  -0.0167689   0.0022022  -0.0015357   0.0061420  -0.0009970
   18  -0.0007055   0.0024789  -0.0013562   0.0006211  -0.0008234   0.0000743
   19  -0.0095016  -0.0294171   0.0053232  -0.0079310   0.0072417  -0.0014952
   20   0.0126198   0.0047959  -0.0025673   0.0097717   0.0044696  -0.0005608
   21  -0.0038494  -0.0019169  -0.0049360  -0.0011892  -0.0005289   0.0030626
   22  -0.0002403  -0.0071493   0.0014840  -0.0032642   0.0007861  -0.0002279
   23  -0.0009880  -0.0025166  -0.0002331  -0.0020368   0.0002742   0.0001314
   24   0.0004367   0.0006169  -0.0007684   0.0002869  -0.0002471   0.0000349
   25  -0.1278219   0.0537878  -0.0093638  -0.0467336   0.0049998  -0.0006483
   26   0.0341508  -0.1365332   0.0052359  -0.0136837   0.0123422   0.0010528
   27  -0.0105703   0.0088673  -0.0969272   0.0042969   0.0009379   0.0126873
   28   0.0037422   0.0103528  -0.0260459  -0.0018133   0.0000181   0.0021102
   29  -0.0007986  -0.0113743   0.0293599  -0.0006727   0.0013968  -0.0039021
   30   0.0022658   0.0039010  -0.0047906  -0.0003020  -0.0014684   0.0026073
   31   0.0102616   0.0191637   0.0182649  -0.0032400  -0.0005623  -0.0005930
   32   0.0091179  -0.0254943  -0.0173564  -0.0027207  -0.0044308  -0.0004770
   33   0.0080059   0.0028796   0.0074583  -0.0014427  -0.0019937   0.0002370
   34   0.0001448  -0.0001989   0.0011514  -0.0004815   0.0006950  -0.0006680
   35  -0.0010166   0.0022689  -0.0005125   0.0003084   0.0002293   0.0002862
   36  -0.0017530   0.0014071  -0.0005300   0.0009962  -0.0004470   0.0005938
   37  -0.0010343   0.0002286   0.0000550  -0.0019445   0.0042400   0.0012663
   38  -0.0047258  -0.0034250   0.0004993   0.0025017   0.0020379   0.0004200
   39  -0.0006638  -0.0006768   0.0006344   0.0006255  -0.0000098  -0.0009396
   40  -0.0024025  -0.0026616  -0.0003762   0.0006550   0.0025187   0.0008823
   41  -0.0051754  -0.0022429  -0.0044312   0.0012138   0.0010072   0.0005642
   42  -0.0031018  -0.0035939  -0.0030952   0.0008905   0.0001272   0.0005386
   43   0.7057766   0.0653054  -0.0166422  -0.4115261  -0.1251145   0.0266983
   44   0.0653054   0.7511432  -0.0730001  -0.1062276  -0.1892555   0.0131863
   45  -0.0166422  -0.0730001   0.3076742   0.0242528   0.0145988  -0.1205412
   46  -0.4115261  -0.1062276   0.0242528   0.4878160   0.1806582  -0.0403189
   47  -0.1251145  -0.1892555   0.0145988   0.1806582   0.2374921  -0.0283308
   48   0.0266983   0.0131863  -0.1205412  -0.0403189  -0.0283308   0.0785696
   49  -0.1806514  -0.0064533   0.0027902  -0.0167942  -0.0759311   0.0123456
   50   0.0162684  -0.3693358   0.0438880  -0.0731837  -0.0577420   0.0153304
   51  -0.0004893   0.0458706  -0.0755960   0.0130863   0.0150022   0.0200447
   52   0.0119730  -0.0230625   0.0027656   0.0077738   0.0141194  -0.0018660
   53  -0.0401064  -0.0098840   0.0019579   0.0011493  -0.0052598   0.0021695
   54   0.0050643   0.0008996  -0.0069781   0.0001072   0.0020393   0.0084407
   55   0.0239107   0.0194323  -0.0020737  -0.0116539  -0.0058699   0.0004278
   56   0.0285959  -0.0343414   0.0067073   0.0057479   0.0068764  -0.0020623
   57  -0.0012767   0.0091299  -0.0059206  -0.0041606  -0.0004054  -0.0038279
   58  -0.0080167  -0.0024602  -0.0021285   0.0033275  -0.0006274  -0.0001960
   59   0.0045127   0.0017874   0.0021256  -0.0003921  -0.0011088   0.0002962
   60  -0.0014071  -0.0025163  -0.0000320   0.0006880  -0.0001157   0.0000420
   61  -0.0036632  -0.0057027   0.0007790   0.0042569  -0.0005484   0.0005229
   62   0.0026968   0.0029395   0.0001178  -0.0013882  -0.0023264   0.0002356
   63  -0.0025541  -0.0019846   0.0018536   0.0020692   0.0001398  -0.0009873
   64  -0.0054932  -0.0056526   0.0027275   0.0032266   0.0017412   0.0006130
   65   0.0048354   0.0040777  -0.0035226  -0.0022256  -0.0007831   0.0007108
   66  -0.0005570   0.0014314   0.0004413   0.0000945  -0.0008266   0.0001727
           49          50          51          52          53          54
    1  -0.0006138  -0.0002294   0.0001234   0.0014301   0.0001526  -0.0002252
    2   0.0012900   0.0015903  -0.0006109  -0.0028206  -0.0008896   0.0008654
    3  -0.0005098  -0.0005062  -0.0003305   0.0011489   0.0005043   0.0008230
    4  -0.0000858   0.0001795  -0.0000197   0.0001374   0.0000094   0.0000856
    5   0.0000981   0.0001499  -0.0000401  -0.0002891  -0.0000266   0.0000360
    6  -0.0000178   0.0000227  -0.0000150   0.0000087   0.0000168   0.0000060
    7  -0.0007329  -0.0006483   0.0002037   0.0015256   0.0003031  -0.0002364
    8   0.0002835   0.0002170  -0.0000603  -0.0003990  -0.0000059   0.0000375
    9  -0.0001078  -0.0000801  -0.0000357   0.0001760   0.0000343   0.0000874
   10   0.0000542   0.0002562  -0.0000605  -0.0001730  -0.0000909  -0.0000339
   11   0.0000928   0.0001190   0.0000007  -0.0002506  -0.0000292  -0.0000292
   12  -0.0000314  -0.0000665  -0.0000020   0.0001066  -0.0000098   0.0000150
   13   0.0022544  -0.0005651   0.0002677  -0.0091244   0.0081262  -0.0017482
   14  -0.0157618  -0.0215440   0.0046140   0.0372869   0.0067315  -0.0028179
   15   0.0038819   0.0046929  -0.0021570  -0.0083687  -0.0015023   0.0028737
   16  -0.0417945  -0.0137423   0.0057863   0.0012884  -0.0053088   0.0008349
   17   0.0020604   0.0201749  -0.0018963  -0.0207094  -0.0124374   0.0016686
   18   0.0021039  -0.0019024   0.0094885   0.0033862   0.0011438  -0.0092956
   19   0.0048831   0.0069785  -0.0013101  -0.0063005  -0.0000433   0.0003815
   20   0.0028872   0.0091250  -0.0017438  -0.0137389  -0.0034476   0.0011421
   21  -0.0004308  -0.0019208   0.0013225   0.0029155   0.0006098  -0.0011965
   22   0.0007065   0.0010171  -0.0002122  -0.0012486  -0.0001961   0.0001028
   23   0.0000167   0.0004999  -0.0000907  -0.0007278  -0.0000927   0.0000535
   24  -0.0001106  -0.0002521  -0.0000466   0.0000900   0.0000165  -0.0001699
   25   0.0081433  -0.0091539   0.0009838   0.0085080   0.0011775  -0.0005350
   26   0.0291454  -0.0203234   0.0056064   0.0031635  -0.0011468  -0.0005193
   27  -0.0033841   0.0040962   0.0099457  -0.0005622  -0.0001929  -0.0025813
   28  -0.0023175   0.0019847   0.0008472  -0.0014969  -0.0003855  -0.0003314
   29   0.0033138  -0.0019449  -0.0015874   0.0001705   0.0004284   0.0007281
   30  -0.0015137   0.0001375   0.0002456  -0.0000111  -0.0001966  -0.0000489
   31  -0.0039151   0.0027861  -0.0016075  -0.0020857  -0.0003647   0.0006486
   32   0.0017076  -0.0001045   0.0001987  -0.0001125  -0.0000224  -0.0003468
   33  -0.0028588   0.0029630  -0.0018943  -0.0002866  -0.0001406   0.0006126
   34  -0.0000557   0.0000354  -0.0001216   0.0002646   0.0000292  -0.0000100
   35  -0.0001164   0.0000322   0.0003839  -0.0000445  -0.0000670  -0.0001351
   36   0.0004474  -0.0008377   0.0005920   0.0001138  -0.0000174  -0.0002072
   37   0.0001767  -0.0001691   0.0001263  -0.0000815  -0.0000002  -0.0000105
   38   0.0010672   0.0013570  -0.0003421  -0.0008125   0.0000740   0.0000231
   39   0.0002547   0.0004103   0.0000849  -0.0003428   0.0000140  -0.0000307
   40   0.0006182   0.0006411   0.0000214  -0.0002496   0.0000080  -0.0000606
   41   0.0014415  -0.0014650   0.0004538   0.0007886   0.0002134  -0.0002181
   42   0.0014385  -0.0009631   0.0005523   0.0002326   0.0000830  -0.0002152
   43  -0.1806514   0.0162684  -0.0004893   0.0119730  -0.0401064   0.0050643
   44  -0.0064533  -0.3693358   0.0458706  -0.0230625  -0.0098840   0.0008996
   45   0.0027902   0.0438880  -0.0755960   0.0027656   0.0019579  -0.0069781
   46  -0.0167942  -0.0731837   0.0130863   0.0077738   0.0011493   0.0001072
   47  -0.0759311  -0.0577420   0.0150022   0.0141194  -0.0052598   0.0020393
   48   0.0123456   0.0153304   0.0200447  -0.0018660   0.0021695   0.0084407
   49   0.8601443   0.0856689  -0.0390693  -0.3954052  -0.1129639   0.0341982
   50   0.0856689   0.7705117  -0.1075039  -0.1111944  -0.1388913   0.0252953
   51  -0.0390693  -0.1075039   0.1226584   0.0305723   0.0234709  -0.0269361
   52  -0.3954052  -0.1111944   0.0305723   0.3917823   0.1190672  -0.0307268
   53  -0.1129639  -0.1388913   0.0234709   0.1190672   0.1514764  -0.0251492
   54   0.0341982   0.0252953  -0.0269361  -0.0307268  -0.0251492   0.0368847
   55  -0.1978324   0.0427175  -0.0021903  -0.0103945   0.0240431  -0.0057763
   56   0.0429277  -0.1628505   0.0114098  -0.0001392   0.0184978  -0.0047905
   57  -0.0074454   0.0102982  -0.0741332   0.0009123  -0.0031607  -0.0015252
   58   0.0045279   0.0328500  -0.0237116   0.0009095  -0.0005035  -0.0001139
   59  -0.0014195  -0.0240204   0.0155265  -0.0008748   0.0003144   0.0000281
   60  -0.0017471   0.0024856   0.0025714  -0.0001088   0.0007966   0.0002470
   61  -0.0309536  -0.0092746  -0.0051289   0.0008793   0.0049071  -0.0027281
   62   0.0288582   0.0144340   0.0074256   0.0009996  -0.0045182   0.0016073
   63  -0.0019094   0.0008640  -0.0005495   0.0001693   0.0003996  -0.0003923
   64  -0.0103564   0.0267773   0.0219025   0.0000879   0.0009905   0.0011130
   65   0.0117871  -0.0199890  -0.0160875  -0.0004202  -0.0010175  -0.0004181
   66   0.0016755   0.0035487   0.0141900  -0.0003250  -0.0008477  -0.0004129
           55          56          57          58          59          60
    1   0.0000301  -0.0001817   0.0000155   0.0000171   0.0000140  -0.0000061
    2   0.0001332   0.0002204   0.0000077  -0.0000707   0.0000369  -0.0000195
    3  -0.0000202  -0.0001099   0.0000336   0.0000084   0.0000118   0.0000096
    4   0.0000695  -0.0000500  -0.0000109  -0.0000097   0.0000166  -0.0000091
    5   0.0000002   0.0000341  -0.0000097  -0.0000073   0.0000037   0.0000030
    6   0.0000230  -0.0000222   0.0000063  -0.0000030   0.0000034  -0.0000089
    7   0.0000120  -0.0001972   0.0000005   0.0000288   0.0000005   0.0000060
    8  -0.0000124   0.0000755   0.0000035  -0.0000114   0.0000004  -0.0000080
    9  -0.0000002  -0.0000255   0.0000035   0.0000036   0.0000007   0.0000009
   10   0.0000680  -0.0000281   0.0000184  -0.0000143   0.0000256  -0.0000100
   11  -0.0000005   0.0000496  -0.0000008  -0.0000018   0.0000023   0.0000036
   12  -0.0000240   0.0000001  -0.0000081   0.0000040  -0.0000041   0.0000078
   13  -0.0007676   0.0023489  -0.0002027  -0.0000320  -0.0001926   0.0000961
   14  -0.0015160  -0.0029771  -0.0004493   0.0010183  -0.0006611   0.0005322
   15   0.0002401   0.0006216   0.0000198  -0.0002200   0.0001831  -0.0001398
   16  -0.0009647  -0.0082600   0.0008448   0.0005222   0.0004446  -0.0002460
   17  -0.0001552  -0.0003160   0.0007338  -0.0006246   0.0004160  -0.0004742
   18   0.0003694   0.0007432   0.0000616   0.0002779  -0.0002686   0.0000174
   19   0.0008586   0.0002615   0.0000931  -0.0002037   0.0003183  -0.0001933
   20   0.0004725   0.0010999   0.0001922  -0.0004351   0.0002976  -0.0002613
   21  -0.0001419  -0.0002061  -0.0002873   0.0000805  -0.0000968   0.0000659
   22   0.0001408   0.0000089   0.0000197  -0.0000442   0.0000586  -0.0000253
   23   0.0001613  -0.0000576   0.0000476  -0.0000241   0.0000436  -0.0000207
   24  -0.0000448   0.0000502   0.0000889   0.0000128  -0.0000075   0.0000021
   25  -0.0012249  -0.0021502   0.0002492   0.0007060  -0.0008405   0.0003336
   26  -0.0041099  -0.0011197   0.0020347   0.0011309  -0.0008808   0.0001458
   27   0.0002236   0.0015795   0.0096751   0.0014245  -0.0007466   0.0000873
   28   0.0003511   0.0004316   0.0011481   0.0000119   0.0000638  -0.0000579
   29  -0.0003969  -0.0004888  -0.0015032  -0.0000870  -0.0000143   0.0000187
   30   0.0002440   0.0000928  -0.0000577  -0.0000591   0.0000487  -0.0000116
   31   0.0009700   0.0002518  -0.0012439  -0.0004502   0.0004088  -0.0001129
   32  -0.0000645  -0.0002365   0.0010154   0.0001999  -0.0001430  -0.0000000
   33   0.0006277  -0.0000636  -0.0006847  -0.0002627   0.0003269  -0.0000660
   34  -0.0000022  -0.0000011  -0.0000293   0.0000043   0.0000090   0.0000132
   35   0.0000370  -0.0000630  -0.0000501  -0.0000031   0.0000067  -0.0000088
   36  -0.0001563  -0.0000390  -0.0001312   0.0000166  -0.0000610   0.0000073
   37  -0.0000746   0.0000461   0.0000544   0.0000300  -0.0000175   0.0000061
   38   0.0001488  -0.0001201  -0.0000259  -0.0000129   0.0000599  -0.0000233
   39   0.0001030  -0.0000092   0.0000082  -0.0000004   0.0000204  -0.0000079
   40   0.0001395  -0.0001662   0.0001157   0.0000220   0.0000228  -0.0000089
   41  -0.0004937   0.0000722   0.0003934   0.0001661  -0.0001638   0.0000508
   42  -0.0003262  -0.0000690   0.0002199   0.0001065  -0.0001315   0.0000181
   43   0.0239107   0.0285959  -0.0012767  -0.0080167   0.0045127  -0.0014071
   44   0.0194323  -0.0343414   0.0091299  -0.0024602   0.0017874  -0.0025163
   45  -0.0020737   0.0067073  -0.0059206  -0.0021285   0.0021256  -0.0000320
   46  -0.0116539   0.0057479  -0.0041606   0.0033275  -0.0003921   0.0006880
   47  -0.0058699   0.0068764  -0.0004054  -0.0006274  -0.0011088  -0.0001157
   48   0.0004278  -0.0020623  -0.0038279  -0.0001960   0.0002962   0.0000420
   49  -0.1978324   0.0429277  -0.0074454   0.0045279  -0.0014195  -0.0017471
   50   0.0427175  -0.1628505   0.0102982   0.0328500  -0.0240204   0.0024856
   51  -0.0021903   0.0114098  -0.0741332  -0.0237116   0.0155265   0.0025714
   52  -0.0103945  -0.0001392   0.0009123   0.0009095  -0.0008748  -0.0001088
   53   0.0240431   0.0184978  -0.0031607  -0.0005035   0.0003144   0.0007966
   54  -0.0057763  -0.0047905  -0.0015252  -0.0001139   0.0000281   0.0002470
   55   0.5968682   0.0846891  -0.0047556  -0.0807852  -0.0419501   0.0446798
   56   0.0846891   0.6031036   0.0086764  -0.0492951  -0.1701045   0.1209699
   57  -0.0047556   0.0086764   0.6116015   0.0490644   0.1169405  -0.1953950
   58  -0.0807852  -0.0492951   0.0490644   0.0831514   0.0392881  -0.0506964
   59  -0.0419501  -0.1701045   0.1169405   0.0392881   0.1897363  -0.1352592
   60   0.0446798   0.1209699  -0.1953950  -0.0506964  -0.1352592   0.2056002
   61  -0.2536235  -0.1160589  -0.0612290  -0.0035568  -0.0033597  -0.0006324
   62  -0.1294587  -0.1391555  -0.0407571  -0.0172499  -0.0100278  -0.0075695
   63  -0.0612843  -0.0376797  -0.0814324   0.0239223   0.0129077   0.0100120
   64  -0.0660950   0.0112182   0.0278179  -0.0001458   0.0038632   0.0094384
   65   0.0121927  -0.1181988  -0.1031112  -0.0032392   0.0144193   0.0212703
   66   0.0298554  -0.1057739  -0.2583151   0.0024702  -0.0118446  -0.0230278
           61          62          63          64          65          66
    1  -0.0000473   0.0000189  -0.0000049  -0.0000146   0.0000247   0.0000135
    2   0.0000751  -0.0000537   0.0000033  -0.0000175   0.0000075  -0.0000004
    3  -0.0000453   0.0000099  -0.0000129   0.0000171   0.0000052  -0.0000077
    4  -0.0000081   0.0000030   0.0000038  -0.0000262   0.0000203   0.0000093
    5   0.0000092  -0.0000068  -0.0000003  -0.0000003   0.0000016  -0.0000023
    6  -0.0000014   0.0000016  -0.0000008  -0.0000051   0.0000026   0.0000053
    7  -0.0000517   0.0000298  -0.0000017  -0.0000028   0.0000189   0.0000109
    8   0.0000205  -0.0000045   0.0000007  -0.0000034  -0.0000074  -0.0000041
    9  -0.0000083   0.0000043   0.0000012  -0.0000007   0.0000012   0.0000013
   10  -0.0000034  -0.0000040   0.0000011  -0.0000150   0.0000154  -0.0000009
   11   0.0000102  -0.0000072   0.0000034  -0.0000008  -0.0000010  -0.0000045
   12  -0.0000042   0.0000032   0.0000008   0.0000041  -0.0000020  -0.0000024
   13   0.0004978  -0.0002656   0.0000039   0.0002177  -0.0003394  -0.0001853
   14  -0.0010384   0.0005727  -0.0000409   0.0006072  -0.0001328   0.0000760
   15   0.0002336  -0.0001211   0.0000187  -0.0000439  -0.0000600  -0.0000343
   16  -0.0020552   0.0014087  -0.0001656  -0.0004005   0.0007301   0.0003844
   17   0.0001191   0.0001422  -0.0000088  -0.0005599   0.0002345   0.0000360
   18   0.0002440  -0.0001713   0.0000710  -0.0001840   0.0000436   0.0000339
   19   0.0002950  -0.0002615   0.0000861  -0.0002550   0.0001430   0.0000627
   20   0.0003777  -0.0000588  -0.0000365  -0.0002700   0.0001015   0.0000017
   21  -0.0000641   0.0000401  -0.0000085   0.0000465  -0.0000056   0.0000300
   22   0.0000250  -0.0000340   0.0000152  -0.0000463   0.0000307   0.0000046
   23  -0.0000035  -0.0000175   0.0000069  -0.0000379   0.0000311   0.0000034
   24  -0.0000002   0.0000019   0.0000013   0.0000124  -0.0000125  -0.0000206
   25  -0.0001172  -0.0001005   0.0000994   0.0005518  -0.0005216  -0.0000815
   26  -0.0000372   0.0000508   0.0000282   0.0000923  -0.0002195  -0.0001494
   27   0.0002942  -0.0006744   0.0000599  -0.0016207   0.0012763  -0.0007563
   28   0.0000880  -0.0000584  -0.0000063  -0.0002767   0.0003399  -0.0000772
   29   0.0000135   0.0000785   0.0000073   0.0004120  -0.0003816   0.0001376
   30  -0.0000447   0.0000001  -0.0000239  -0.0000434   0.0000340  -0.0000344
   31  -0.0000411  -0.0000058   0.0000140   0.0000130  -0.0000014   0.0000842
   32   0.0000047  -0.0000498  -0.0000021  -0.0001626   0.0001234  -0.0000657
   33  -0.0001198   0.0000424   0.0000318  -0.0000340   0.0000530   0.0000261
   34  -0.0000275   0.0000148   0.0000231   0.0000009  -0.0000118  -0.0000096
   35  -0.0000057   0.0000089   0.0000003  -0.0000092   0.0000098  -0.0000010
   36   0.0000217   0.0000117  -0.0000252   0.0000506  -0.0000252   0.0000156
   37   0.0000293  -0.0000013   0.0000111   0.0000032  -0.0000117  -0.0000052
   38   0.0000500  -0.0000539   0.0000127  -0.0000347   0.0000197   0.0000251
   39   0.0000030  -0.0000181   0.0000199  -0.0000255  -0.0000012  -0.0000048
   40   0.0000241  -0.0000309   0.0000044  -0.0000465   0.0000469   0.0000194
   41   0.0000355  -0.0000106  -0.0000017   0.0000387  -0.0000496  -0.0000434
   42   0.0000360  -0.0000039  -0.0000197   0.0000260  -0.0000215  -0.0000107
   43  -0.0036632   0.0026968  -0.0025541  -0.0054932   0.0048354  -0.0005570
   44  -0.0057027   0.0029395  -0.0019846  -0.0056526   0.0040777   0.0014314
   45   0.0007790   0.0001178   0.0018536   0.0027275  -0.0035226   0.0004413
   46   0.0042569  -0.0013882   0.0020692   0.0032266  -0.0022256   0.0000945
   47  -0.0005484  -0.0023264   0.0001398   0.0017412  -0.0007831  -0.0008266
   48   0.0005229   0.0002356  -0.0009873   0.0006130   0.0007108   0.0001727
   49  -0.0309536   0.0288582  -0.0019094  -0.0103564   0.0117871   0.0016755
   50  -0.0092746   0.0144340   0.0008640   0.0267773  -0.0199890   0.0035487
   51  -0.0051289   0.0074256  -0.0005495   0.0219025  -0.0160875   0.0141900
   52   0.0008793   0.0009996   0.0001693   0.0000879  -0.0004202  -0.0003250
   53   0.0049071  -0.0045182   0.0003996   0.0009905  -0.0010175  -0.0008477
   54  -0.0027281   0.0016073  -0.0003923   0.0011130  -0.0004181  -0.0004129
   55  -0.2536235  -0.1294587  -0.0612843  -0.0660950   0.0121927   0.0298554
   56  -0.1160589  -0.1391555  -0.0376797   0.0112182  -0.1181988  -0.1057739
   57  -0.0612290  -0.0407571  -0.0814324   0.0278179  -0.1031112  -0.2583151
   58  -0.0035568  -0.0172499   0.0239223  -0.0001458  -0.0032392   0.0024702
   59  -0.0033597  -0.0100278   0.0129077   0.0038632   0.0144193  -0.0118446
   60  -0.0006324  -0.0075695   0.0100120   0.0094384   0.0212703  -0.0230278
   61   0.2801279   0.1277765   0.0670499   0.0079253   0.0026302   0.0008221
   62   0.1277765   0.1453246   0.0427869  -0.0129473  -0.0072606  -0.0029730
   63   0.0670499   0.0427869   0.0782814  -0.0275466  -0.0174060  -0.0068989
   64   0.0079253  -0.0129473  -0.0275466   0.0711475  -0.0260442  -0.0342650
   65   0.0026302  -0.0072606  -0.0174060  -0.0260442   0.1290151   0.1172765
   66   0.0008221  -0.0029730  -0.0068989  -0.0342650   0.1172765   0.2746098
 Gradient time:  CPU 1984.42 s  wall 1984.85 s
 **********************************************************************
 **                                                                  **
 **                       VIBRATIONAL ANALYSIS                       **
 **                       --------------------                       **
 **                                                                  **
 **        VIBRATIONAL FREQUENCIES (CM**-1) AND NORMAL MODES         **
 **     FORCE CONSTANTS (mDYN/ANGSTROM) AND REDUCED MASSES (AMU)     **
 **                  INFRARED INTENSITIES (KM/MOL)                   **
 **                                                                  **
 **********************************************************************
 

 Mode:                 1                      2                      3
 Frequency:       135.34                 151.48                 186.68
 Force Cnst:      0.0436                 0.0632                 0.0910
 Red. Mass:       4.0391                 4.6737                 4.4302
 IR Active:          YES                    YES                    YES
 IR Intens:        0.937                 14.216                  1.132
 Raman Active:       YES                    YES                    YES
               X      Y      Z        X      Y      Z        X      Y      Z
 C         -0.003  0.002  0.109    0.028 -0.080 -0.244   -0.003 -0.091 -0.203
 H         -0.076  0.013  0.128    0.253 -0.056 -0.352    0.144 -0.034 -0.307
 H          0.004  0.012  0.152    0.008 -0.100 -0.303   -0.023 -0.097 -0.182
 H          0.059  0.003  0.135   -0.163 -0.152 -0.353   -0.120 -0.192 -0.294
 C          0.002 -0.033 -0.009    0.013  0.010  0.104   -0.011 -0.032  0.011
 O         -0.003 -0.071 -0.159    0.013  0.066  0.338   -0.015 -0.057 -0.083
 N          0.003 -0.003  0.125    0.007  0.000  0.032   -0.020  0.044  0.318
 H         -0.002  0.017  0.233    0.003 -0.044 -0.153   -0.032  0.046  0.369
 C          0.002 -0.018 -0.019    0.003  0.009  0.032   -0.020  0.022  0.077
 H         -0.016 -0.204 -0.092   -0.001 -0.048  0.009   -0.153 -0.040  0.038
 C          0.007  0.171 -0.257   -0.006  0.077 -0.056    0.170  0.083 -0.031
 H          0.035  0.362 -0.196   -0.008  0.153 -0.033    0.302  0.157  0.003
 H         -0.001  0.153 -0.354   -0.007  0.070 -0.082    0.168  0.026 -0.200
 H         -0.005  0.130 -0.384   -0.010  0.058 -0.116    0.178  0.103  0.022
 C          0.007  0.003  0.124    0.000  0.003  0.040   -0.025  0.006 -0.032
 O          0.013  0.012  0.232    0.006  0.004  0.113   -0.027 -0.025 -0.198
 N         -0.005 -0.015  0.005   -0.020 -0.022 -0.123   -0.027  0.032  0.112
 H         -0.010 -0.026 -0.081   -0.018  0.005 -0.018   -0.026  0.034  0.137
 C         -0.020 -0.050 -0.120   -0.041 -0.059 -0.198   -0.030  0.027  0.070
 H          0.012 -0.094 -0.151   -0.026 -0.075 -0.207   -0.028  0.011  0.055
 H          0.008 -0.088 -0.140   -0.013 -0.093 -0.224   -0.023  0.015  0.075
 H         -0.091  0.004 -0.166   -0.100 -0.039 -0.221   -0.038  0.047  0.056
 TransDip   0.002  0.002 -0.031   -0.002 -0.023 -0.119   -0.003  0.004  0.034

 Mode:                 4                      5                      6
 Frequency:       221.47                 254.50                 290.64
 Force Cnst:      0.1052                 0.1413                 0.2150
 Red. Mass:       3.6397                 3.7019                 4.3208
 IR Active:          YES                    YES                    YES
 IR Intens:        6.026                  0.545                  5.756
 Raman Active:       YES                    YES                    YES
               X      Y      Z        X      Y      Z        X      Y      Z
 C         -0.096  0.079 -0.046    0.016  0.023 -0.019   -0.025  0.264 -0.064
 H         -0.081  0.101 -0.071   -0.014 -0.014  0.024   -0.158  0.409 -0.139
 H         -0.077  0.090 -0.043    0.040  0.026 -0.066    0.266  0.408 -0.037
 H         -0.136  0.067 -0.067    0.018  0.086  0.010   -0.231  0.310 -0.124
 C         -0.091  0.066  0.001    0.015 -0.011 -0.033   -0.020 -0.132  0.051
 O         -0.064  0.086  0.006   -0.002 -0.012  0.005   -0.174 -0.213  0.065
 N         -0.074  0.050  0.027    0.027 -0.029 -0.086    0.095 -0.173  0.069
 H         -0.028  0.085  0.016    0.028 -0.035 -0.114    0.095 -0.177  0.066
 C         -0.045 -0.081  0.013    0.021  0.003  0.024    0.037 -0.040  0.003
 H         -0.011 -0.130 -0.001    0.085 -0.003  0.031   -0.038 -0.037 -0.006
 C          0.016 -0.049 -0.040   -0.093  0.023  0.022   -0.065 -0.015 -0.015
 H          0.017 -0.008 -0.027   -0.181  0.043  0.020   -0.051 -0.012 -0.013
 H          0.023 -0.080 -0.067   -0.087  0.041  0.098   -0.095  0.059 -0.010
 H          0.032 -0.038 -0.059   -0.088  0.007 -0.062   -0.122 -0.074 -0.031
 C         -0.041 -0.097  0.042    0.026  0.018  0.079    0.064  0.064 -0.029
 O         -0.066 -0.056  0.019    0.022 -0.013 -0.111    0.068  0.063 -0.023
 N          0.103 -0.119  0.063    0.012  0.065  0.357    0.021  0.064 -0.052
 H          0.142 -0.216  0.074    0.004  0.075  0.328    0.023  0.050 -0.035
 C          0.316  0.094 -0.063   -0.030 -0.060 -0.190    0.032  0.085  0.001
 H          0.497 -0.021 -0.116    0.112 -0.228 -0.306    0.034  0.101  0.016
 H          0.207  0.267 -0.052    0.094 -0.213 -0.293    0.010  0.120  0.005
 H          0.394  0.217 -0.118   -0.326  0.154 -0.373    0.068  0.067  0.019
 TransDip   0.074 -0.008 -0.024   -0.009 -0.003 -0.022    0.064  0.042 -0.006

 Mode:                 7                      8                      9
 Frequency:       305.53                 322.75                 342.75
 Force Cnst:      0.0576                 0.0644                 0.1897
 Red. Mass:       1.0476                 1.0493                 2.7414
 IR Active:          YES                    YES                    YES
 IR Intens:        0.748                  0.102                  4.510
 Raman Active:       YES                    YES                    YES
               X      Y      Z        X      Y      Z        X      Y      Z
 C          0.010 -0.004  0.013    0.005  0.005  0.015   -0.033 -0.054  0.021
 H          0.008  0.011  0.000    0.018  0.446 -0.374   -0.038  0.034 -0.054
 H          0.008 -0.001  0.033   -0.018  0.087  0.553   -0.065 -0.047  0.153
 H          0.015 -0.023  0.006    0.020 -0.530 -0.225    0.010 -0.181 -0.020
 C          0.009 -0.005  0.007    0.004  0.012  0.017   -0.025 -0.036 -0.012
 O          0.003 -0.007  0.014    0.013  0.012 -0.003   -0.058 -0.043  0.031
 N          0.007 -0.005 -0.010   -0.002  0.005 -0.012    0.001 -0.041 -0.104
 H          0.001 -0.011 -0.014   -0.001  0.011  0.013   -0.006 -0.053 -0.139
[...]

 Mode:                40                     41                     42
 Frequency:      1629.28                1630.29                1632.42
 Force Cnst:      1.6430                 1.6635                 1.6945
 Red. Mass:       1.0505                 1.0623                 1.0793
 IR Active:          YES                    YES                    YES
 IR Intens:       11.464                 10.188                  5.005
 Raman Active:       YES                    YES                    YES
               X      Y      Z        X      Y      Z        X      Y      Z
 C         -0.005  0.003  0.002   -0.034  0.022  0.020    0.043 -0.025 -0.018
 H         -0.008 -0.030  0.015   -0.090 -0.189  0.110    0.072  0.252 -0.125
 H          0.040  0.024 -0.016    0.292  0.184 -0.177   -0.343 -0.206  0.139
 H          0.013 -0.044 -0.031    0.116 -0.348 -0.242   -0.104  0.372  0.268
 C          0.003  0.002  0.001    0.016  0.004  0.009   -0.031 -0.017 -0.007
 O         -0.001  0.001  0.000   -0.006  0.008 -0.002    0.008 -0.006  0.001
 N         -0.001 -0.001  0.000    0.007  0.001  0.000    0.012  0.008  0.000
 H         -0.002 -0.002  0.002   -0.072 -0.067  0.004    0.054  0.045 -0.014
 C          0.004  0.002  0.000   -0.021 -0.004  0.003   -0.025  0.000  0.008
 H         -0.016 -0.004 -0.005    0.051  0.010  0.015    0.040  0.009  0.016
 C          0.006  0.000 -0.004   -0.039  0.006  0.014   -0.025 -0.013  0.021
 H         -0.079  0.050  0.021    0.495 -0.205 -0.084    0.287 -0.256 -0.106
 H          0.013 -0.027 -0.040   -0.001  0.023  0.285   -0.117  0.229  0.121
 H         -0.035 -0.037  0.080    0.101  0.123 -0.421    0.231  0.228 -0.354
 C          0.000 -0.007  0.005    0.004 -0.003  0.001    0.005 -0.006 -0.001
 O          0.003  0.002 -0.002    0.000  0.000  0.000   -0.001  0.000  0.001
 N         -0.010  0.003 -0.012    0.000 -0.002 -0.001    0.000 -0.003 -0.002
 H          0.027 -0.056  0.015   -0.017  0.028 -0.004   -0.024  0.041 -0.010
 C         -0.012 -0.042 -0.038   -0.001  0.001 -0.004    0.000 -0.002 -0.009
 H          0.252  0.404  0.524    0.022  0.023  0.026    0.054  0.065  0.079
 H          0.076 -0.309  0.290    0.008 -0.027  0.028    0.013 -0.060  0.077
 H         -0.114  0.458 -0.233   -0.011  0.014 -0.009   -0.041  0.053 -0.033
 TransDip   0.068 -0.027  0.080    0.061 -0.075 -0.033   -0.052  0.048  0.012

 Mode:                43                     44                     45
 Frequency:      1637.84                1649.33                1746.94
 Force Cnst:      1.6893                 1.6911                 3.1294
 Red. Mass:       1.0689                 1.0551                 1.7404
 IR Active:          YES                    YES                    YES
 IR Intens:       19.441                  0.834                346.319
 Raman Active:       YES                    YES                    YES
               X      Y      Z        X      Y      Z        X      Y      Z
 C         -0.020  0.008  0.005   -0.003  0.001  0.000   -0.015 -0.008 -0.002
 H         -0.017 -0.106  0.045    0.000 -0.012  0.004   -0.018 -0.029  0.005
 H          0.136  0.079 -0.031    0.015  0.008 -0.001    0.027  0.010  0.037
 H          0.027 -0.131 -0.097    0.003 -0.013 -0.009   -0.065  0.006 -0.012
 C          0.027  0.018  0.002    0.005  0.002  0.000    0.083  0.112 -0.008
 O         -0.005  0.002 -0.001   -0.001  0.000  0.000    0.003 -0.035  0.003
 N         -0.019 -0.016  0.002   -0.003 -0.002  0.000   -0.114 -0.127  0.018
 H          0.018  0.012 -0.007   -0.002 -0.001  0.001    0.656  0.511 -0.061
 C          0.013 -0.018  0.004    0.006 -0.003  0.000   -0.024  0.052 -0.004
 H          0.025  0.055  0.050    0.005 -0.005 -0.001    0.301  0.017 -0.018
 C          0.021 -0.041  0.021    0.001 -0.001 -0.001    0.010  0.002 -0.004
 H         -0.370 -0.209 -0.094   -0.028  0.012  0.005    0.040  0.009 -0.002
 H         -0.295  0.531 -0.326   -0.003  0.003 -0.016    0.031 -0.028  0.061
 H          0.377  0.325  0.061    0.001 -0.001  0.029   -0.055 -0.057 -0.058
 C          0.000  0.005 -0.003   -0.008  0.018 -0.010   -0.032  0.022 -0.016
 O         -0.002 -0.001  0.002   -0.003 -0.006  0.005    0.009  0.000 -0.001
 N         -0.003  0.005 -0.001    0.018 -0.009 -0.005    0.028 -0.055  0.019
 H          0.030 -0.048  0.020   -0.025  0.070 -0.028   -0.182  0.287 -0.066
 C         -0.001 -0.003  0.002    0.036  0.024 -0.036   -0.001  0.015 -0.001
 H         -0.007 -0.010 -0.006    0.257 -0.091 -0.103   -0.046  0.044  0.020
 H         -0.003  0.011 -0.022   -0.241  0.115  0.616    0.044 -0.039 -0.020
 H          0.018  0.002  0.002   -0.580 -0.336  0.040    0.008  0.029 -0.007
 TransDip   0.066  0.111 -0.057   -0.017 -0.005  0.023    0.174  0.569 -0.040

 Mode:                46                     47                     48
 Frequency:      1755.33                1894.33                1921.10
 Force Cnst:      3.1251                16.4636                15.2702
 Red. Mass:       1.7215                 7.7868                 7.0225
 IR Active:          YES                    YES                    YES
 IR Intens:      169.423                354.394                470.418
 Raman Active:       YES                    YES                    YES
               X      Y      Z        X      Y      Z        X      Y      Z
 C          0.001  0.003  0.001   -0.028  0.020 -0.002    0.040 -0.031  0.002
 H          0.004  0.003  0.000    0.046  0.021 -0.033   -0.062 -0.031  0.045
 H          0.000  0.003 -0.013   -0.100 -0.010 -0.021    0.152  0.018  0.033
 H          0.021 -0.009 -0.001    0.101 -0.013  0.048   -0.145  0.020 -0.068
 C         -0.015 -0.035  0.004    0.186 -0.278  0.027   -0.275  0.432 -0.043
 O         -0.003  0.010 -0.002   -0.097  0.169 -0.015    0.153 -0.254  0.024
 N          0.032  0.044 -0.005   -0.050  0.008  0.002    0.054 -0.029  0.006
 H         -0.264 -0.202  0.024    0.291  0.290 -0.026   -0.348 -0.359  0.028
 C          0.032 -0.041  0.005   -0.033  0.008  0.018   -0.045 -0.008  0.010
 H         -0.056 -0.042  0.004    0.180 -0.128 -0.081    0.251 -0.061 -0.018
 C         -0.004 -0.003 -0.001    0.003  0.006  0.010    0.012  0.002  0.001
 H         -0.052  0.011  0.003   -0.002 -0.011  0.003   -0.016  0.005 -0.001
 H         -0.023  0.024 -0.045    0.038 -0.057 -0.039    0.010  0.012  0.016
 H          0.039  0.037  0.072   -0.058 -0.049 -0.048   -0.022 -0.029 -0.016
 C         -0.056  0.115 -0.062    0.416  0.193 -0.288    0.225  0.150 -0.177
 O         -0.001 -0.014  0.012   -0.258 -0.105  0.173   -0.140 -0.066  0.098
 N          0.064 -0.151  0.054   -0.059 -0.030  0.023   -0.025 -0.028  0.016
 H         -0.449  0.712 -0.177    0.128 -0.232  0.192    0.096 -0.220  0.201
 C          0.005  0.034 -0.002    0.028 -0.013  0.000    0.012 -0.011  0.001
 H         -0.160  0.120  0.056   -0.169  0.059  0.049   -0.086  0.030  0.033
 H          0.103 -0.074 -0.057   -0.019  0.099 -0.029   -0.026  0.074 -0.009
 H         -0.004  0.086 -0.031   -0.076  0.087 -0.073   -0.045  0.053 -0.045
 TransDip  -0.277  0.258 -0.175    0.512 -0.077 -0.308   -0.024  0.653 -0.237

 Mode:                49                     50                     51
 Frequency:      3208.65                3221.73                3224.93
 Force Cnst:      6.3102                 6.3507                 6.3584
 Red. Mass:       1.0403                 1.0385                 1.0377
 IR Active:          YES                    YES                    YES
 IR Intens:       35.067                 59.310                  8.510
 Raman Active:       YES                    YES                    YES
               X      Y      Z        X      Y      Z        X      Y      Z
 C         -0.001  0.000  0.000    0.002  0.000  0.000   -0.049  0.004 -0.015
 H          0.002  0.002  0.005   -0.005 -0.007 -0.018    0.180  0.226  0.586
 H          0.003 -0.008 -0.001   -0.007  0.018  0.003    0.235 -0.558 -0.092
 H          0.001  0.003 -0.003   -0.004 -0.009  0.010    0.143  0.279 -0.309
 C          0.000  0.000  0.000    0.000  0.000  0.000    0.003  0.000  0.000
 O          0.000  0.000  0.000    0.000  0.000  0.000    0.000  0.000  0.000
 N          0.000  0.000  0.000    0.000  0.000  0.000    0.000 -0.001  0.000
 H         -0.002 -0.002 -0.001    0.000  0.000  0.000   -0.003  0.004 -0.001
 C          0.001  0.002 -0.001    0.000  0.000  0.001    0.000  0.000  0.000
 H         -0.003 -0.015  0.022    0.001  0.003 -0.006    0.000  0.000  0.000
 C          0.016 -0.041 -0.031    0.000  0.000  0.001    0.000  0.000  0.000
 H         -0.008 -0.236  0.425    0.000  0.006 -0.011    0.000  0.003 -0.005
 H          0.358  0.159 -0.052   -0.007 -0.003  0.001   -0.004 -0.002  0.000
 H         -0.542  0.556 -0.012    0.008 -0.008  0.000    0.006 -0.006  0.000
 C         -0.001  0.001  0.000    0.001  0.002 -0.002    0.000  0.000  0.000
 O          0.000  0.000  0.000   -0.001  0.000  0.001    0.000  0.000  0.000
 N          0.000  0.000  0.000    0.000 -0.002  0.001    0.000  0.000  0.000
 H         -0.001  0.000  0.000    0.007  0.000 -0.002   -0.001 -0.001  0.001
 C          0.000 -0.001  0.000    0.029 -0.034 -0.028    0.001 -0.001 -0.001
 H          0.001  0.007 -0.006    0.056  0.335 -0.301    0.002  0.010 -0.009
 H         -0.006 -0.004 -0.002   -0.315 -0.212 -0.109   -0.009 -0.006 -0.003
 H         -0.002  0.005  0.013   -0.094  0.292  0.735   -0.003  0.009  0.023
 TransDip   0.074 -0.149 -0.091    0.154 -0.188 -0.044   -0.083  0.039 -0.016

 Mode:                52                     53                     54
 Frequency:      3266.26                3281.84                3288.46
 Force Cnst:      6.8775                 6.9309                 7.0036
 Red. Mass:       1.0942                 1.0922                 1.0992
 IR Active:          YES                    YES                    YES
 IR Intens:       10.907                 27.847                 37.657
 Raman Active:       YES                    YES                    YES
               X      Y      Z        X      Y      Z        X      Y      Z
 C          0.000 -0.001  0.000    0.000  0.000  0.000    0.000  0.001  0.001
 H          0.001  0.001  0.003    0.000  0.000  0.001   -0.004 -0.005 -0.014
 H         -0.001  0.004  0.001    0.000  0.000  0.000    0.005 -0.012 -0.002
 H          0.001  0.002 -0.002    0.000  0.000  0.001    0.001  0.002 -0.002
 C          0.000  0.001  0.000    0.000  0.000  0.000    0.000  0.000  0.000
 O          0.000  0.000  0.000    0.000  0.000  0.000    0.000  0.000  0.000
 N         -0.001  0.000  0.000    0.001 -0.001  0.001    0.000  0.000  0.000
 H          0.000 -0.003  0.001    0.004  0.007  0.000    0.000  0.000  0.000
 C         -0.001 -0.025  0.045    0.000  0.032 -0.056    0.000  0.000  0.000
 H          0.022  0.302 -0.532   -0.025 -0.370  0.656    0.000  0.000  0.001
 C         -0.038  0.043 -0.043   -0.052  0.022 -0.019    0.000  0.000  0.000
 H         -0.026 -0.288  0.544   -0.018 -0.145  0.284    0.000 -0.001  0.002
 H          0.169  0.094 -0.030    0.349  0.171 -0.055    0.002  0.001  0.000
 H          0.313 -0.318 -0.002    0.283 -0.296  0.001    0.001 -0.001  0.000
 C         -0.001 -0.001  0.001    0.001  0.000 -0.001    0.000  0.000  0.000
 O          0.000  0.000  0.000    0.000  0.000  0.001    0.000  0.000  0.000
 N          0.000  0.000  0.000    0.000  0.000  0.000    0.001  0.000  0.000
 H          0.001  0.001 -0.001    0.002  0.000 -0.001   -0.001  0.001 -0.003
 C          0.000  0.000  0.000    0.000  0.000  0.000   -0.021  0.002 -0.089
 H          0.000 -0.001  0.001    0.001  0.005 -0.004   -0.087 -0.491  0.414
 H         -0.003 -0.002 -0.001   -0.003 -0.002 -0.001    0.393  0.262  0.104
 H          0.000 -0.001 -0.002   -0.001  0.002  0.004   -0.073  0.216  0.534
 TransDip  -0.096  0.042 -0.013   -0.077  0.103 -0.110   -0.057  0.029 -0.186

 Mode:                55                     56                     57
 Frequency:      3290.37                3308.06                3315.95
 Force Cnst:      7.0366                 7.1123                 7.1448
 Red. Mass:       1.1031                 1.1031                 1.1029
 IR Active:          YES                    YES                    YES
 IR Intens:       19.565                 21.575                 10.202
 Raman Active:       YES                    YES                    YES
               X      Y      Z        X      Y      Z        X      Y      Z
 C          0.009 -0.064 -0.067    0.000  0.000  0.000    0.008  0.068 -0.062
 H          0.209  0.236  0.641   -0.001 -0.002 -0.004    0.066  0.091  0.193
 H         -0.267  0.622  0.090    0.002 -0.004  0.000    0.151 -0.349 -0.065
 H         -0.040 -0.089  0.070    0.000  0.001 -0.001   -0.307 -0.561  0.618
 C         -0.001 -0.002 -0.001    0.000  0.000  0.000    0.000  0.002 -0.001
 O          0.000  0.000  0.000    0.000  0.000  0.000    0.000 -0.001  0.000
 N          0.000  0.001  0.000    0.000  0.000  0.000    0.000 -0.001  0.000
 H          0.006 -0.004 -0.001   -0.001 -0.001  0.002   -0.004  0.001  0.000
 C          0.000  0.000  0.000   -0.001 -0.010  0.018    0.000  0.000  0.000
 H          0.000  0.000  0.000    0.008  0.112 -0.204    0.000  0.002 -0.003
 C          0.000 -0.001  0.000   -0.064 -0.045  0.046    0.000  0.000  0.000
 H          0.000  0.003 -0.005    0.006  0.246 -0.466    0.000  0.000  0.001
 H          0.004  0.002  0.000    0.728  0.340 -0.095    0.001  0.001  0.000
 H         -0.003  0.003  0.000    0.036 -0.053  0.009    0.001 -0.001  0.000
 C          0.000  0.000  0.000   -0.001 -0.001  0.001    0.000  0.000  0.000
 O          0.000  0.000  0.000    0.000  0.001  0.000    0.000  0.000  0.000
 N          0.000  0.000  0.000    0.000  0.000  0.000    0.000  0.000  0.000
 H          0.001  0.001 -0.001    0.001  0.002  0.000   -0.001 -0.001  0.001
 C          0.000  0.000 -0.002    0.001  0.002  0.000   -0.002 -0.003  0.000
 H         -0.002 -0.011  0.010   -0.002 -0.011  0.010    0.003  0.015 -0.014
 H          0.007  0.005  0.002   -0.014 -0.010 -0.004    0.022  0.014  0.007
 H         -0.001  0.004  0.011    0.001 -0.001 -0.003   -0.001  0.000  0.002
 TransDip   0.048 -0.113 -0.070   -0.089 -0.084  0.085   -0.004  0.091 -0.047

 Mode:                58                     59                     60
 Frequency:      3317.72                3827.18                3863.81
 Force Cnst:      7.1727                 9.3135                 9.4778
 Red. Mass:       1.1060                 1.0792                 1.0775
 IR Active:          YES                    YES                    YES
 IR Intens:       26.407                279.785                 27.302
 Raman Active:       YES                    YES                    YES
               X      Y      Z        X      Y      Z        X      Y      Z
 C          0.000 -0.002  0.002    0.000  0.000  0.000    0.000  0.000  0.000
 H         -0.002 -0.003 -0.005    0.000  0.000  0.000    0.000  0.000  0.001
 H         -0.006  0.014  0.002    0.002 -0.002  0.000   -0.001  0.010  0.000
 H          0.010  0.019 -0.021   -0.001  0.000  0.000    0.000  0.001  0.000
 C          0.000  0.000  0.000   -0.001  0.004  0.000    0.002  0.001  0.000
 O          0.000  0.000  0.000    0.000 -0.002  0.000    0.000  0.001  0.000
 N          0.000  0.000  0.000   -0.002  0.001  0.000    0.046 -0.057  0.005
 H          0.000  0.000  0.000    0.020 -0.026  0.002   -0.644  0.758 -0.064
 C          0.000  0.000  0.001    0.001  0.000  0.000   -0.001  0.000  0.000
 H          0.000  0.005 -0.008   -0.001  0.000  0.000    0.001  0.003 -0.003
 C         -0.002 -0.001  0.001    0.000  0.000  0.000    0.000  0.000  0.000
 H          0.000  0.005 -0.010    0.000  0.000  0.000    0.000  0.000  0.000
 H          0.017  0.008 -0.002   -0.001 -0.001  0.000    0.000  0.000  0.000
 H          0.002 -0.002  0.000   -0.001  0.002  0.000   -0.001  0.001  0.000
 C         -0.001  0.000  0.001    0.000 -0.001  0.000    0.000  0.000  0.000
 O          0.001  0.000  0.000    0.001  0.001 -0.001    0.000  0.000  0.000
 N          0.001  0.001  0.000   -0.064 -0.033  0.018   -0.002 -0.001  0.001
 H         -0.006 -0.011  0.000    0.859  0.451 -0.228    0.028  0.015 -0.007
 C         -0.058 -0.073  0.014    0.001  0.000  0.000    0.000  0.000  0.000
 H          0.074  0.453 -0.404   -0.001  0.004 -0.002    0.000  0.000  0.000
 H          0.632  0.416  0.203    0.014  0.001  0.002    0.000  0.000  0.000
 H         -0.016 -0.003  0.035    0.002 -0.003 -0.004    0.000  0.000  0.000
 TransDip  -0.106 -0.123  0.024    0.510  0.152 -0.063   -0.059  0.155 -0.018

 STANDARD THERMODYNAMIC QUANTITIES AT   298.15 K  AND     1.00 ATM

   This Molecule has  1 Imaginary Frequencies
   Zero point vibrational energy:      125.922 kcal/mol

   Atom    1 Element C  Has Mass   12.00000
   Atom    2 Element H  Has Mass    1.00783
   Atom    3 Element H  Has Mass    1.00783
   Atom    4 Element H  Has Mass    1.00783
   Atom    5 Element C  Has Mass   12.00000
   Atom    6 Element O  Has Mass   15.99491
   Atom    7 Element N  Has Mass   14.00307
   Atom    8 Element H  Has Mass    1.00783
   Atom    9 Element C  Has Mass   12.00000
   Atom   10 Element H  Has Mass    1.00783
   Atom   11 Element C  Has Mass   12.00000
   Atom   12 Element H  Has Mass    1.00783
   Atom   13 Element H  Has Mass    1.00783
   Atom   14 Element H  Has Mass    1.00783
   Atom   15 Element C  Has Mass   12.00000
   Atom   16 Element O  Has Mass   15.99491
   Atom   17 Element N  Has Mass   14.00307
   Atom   18 Element H  Has Mass    1.00783
   Atom   19 Element C  Has Mass   12.00000
   Atom   20 Element H  Has Mass    1.00783
   Atom   21 Element H  Has Mass    1.00783
   Atom   22 Element H  Has Mass    1.00783
   Molecular Mass:   144.089920 amu
   Principal axes and moments of inertia in amu*Bohr^2:
                             1           2           3
    Eigenvalues --      928.47038  1972.86141  2608.66986
          X               0.99930    -0.03529     0.01217
          Y               0.03510     0.99927     0.01509
          Z              -0.01269    -0.01465     0.99981
   Rotational Symmetry Number is   1
   The Molecule is an Asymmetric Top
   Translational Enthalpy:        0.889 kcal/mol
   Rotational Enthalpy:           0.889 kcal/mol
   Vibrational Enthalpy:        130.844 kcal/mol
   gas constant (RT):             0.592 kcal/mol
   Translational Entropy:        40.807  cal/mol.K
   Rotational Entropy:           29.947  cal/mol.K
   Vibrational Entropy:          33.044  cal/mol.K

   Total Enthalpy:              133.214 kcal/mol
   Total Entropy:               103.798  cal/mol.K
Archival summary:
1\1\bt2600-16\FREQ\HF\6-31+G*\22612\emavera\MonApr2417:42:082017MonApr2417:42:082017\0\\#,FREQ,HF,6-31+G*,\\0,1\N\H,1,0.995481\C,1,1.34788,2,114.164\O,3,1.20761,1,125.281,2,179.261,0\C,1,1.47301,2,110.494,3,-175.822,0\H,5,1.08067,1,106.011,2,56.2712,0\C,3,1.51538,1,115.033,2,-1.20344,0\H,7,1.08157,3,108.502,1,136.943,0\H,7,1.08319,3,113.934,1,14.7377,0\H,7,1.08459,3,108.146,1,-106.316,0\C,5,1.53578,1,108.441,2,-60.0757,0\H,11,1.08269,5,110.14,1,173.329,0\H,11,1.08397,5,110.692,1,-65.8905,0\H,11,1.0862,5,110.338,1,54.0338,0\C,5,1.53921,1,123.092,2,173.812,0\O,15,1.20662,5,115.371,1,-149.219,0\N,15,1.33973,5,120.956,1,39.0999,0\H,17,0.997609,15,116.506,5,-31.2432,0\C,17,1.44995,15,119.534,5,178.221,0\H,19,1.08079,17,110.142,15,-58.3304,0\H,19,1.08174,17,108.139,15,-177.453,0\H,19,1.08475,17,111.886,15,62.2641,0\\HF=-492.856543\\@

 Total job time:  2151.53s(wall), 2151.28s(cpu) 
 Mon Apr 24 17:42:08 2017

        *************************************************************
        *                                                           *
        *  Thank you very much for using Q-Chem.  Have a nice day.  *
        *                                                           *
        *************************************************************


0 sent ACK to 0 
now end server 0 ... 
cleanup process ... done
