Jobname.Temp
FOPT      R                             6-31+G(d)           
Number of atoms                            I               15
Charge                                     I               -2
Multiplicity                               I                1
Number of electrons                        I               70
Number of alpha electrons                  I               35
Number of beta electrons                   I               35
Atomic numbers                             I   N=          15
           6           8           8           6           6           8
           6           8           6           1           1           1
           1           1           1
Current cartesian coordinates              R   N=          45
  3.02236137E+00  5.55513241E-01 -1.20202350E-01  2.78125214E+00  2.87994216E+00
  2.79501647E-01  5.12716227E+00 -6.98081143E-01 -4.71619397E-01  6.96548884E-01
 -1.06603818E+00  2.18372927E-01 -2.84093912E+00  8.18327518E-01 -2.74940408E+00
  9.24188853E-01 -3.44988863E+00  5.97920220E-01 -2.11578084E+00 -1.34778431E-01
 -1.12315091E-02 -3.91271400E+00 -1.85514747E+00  6.46365317E-01 -2.49585545E+00
  2.09644483E+00  1.86411577E+00 -4.55429695E+00  2.62907128E+00  1.69985290E+00
 -1.50163456E+00  3.96872832E+00  1.10632840E+00 -2.08544039E+00  2.06494283E+00
  3.89677951E+00 -3.29064130E+00 -1.15323797E+00 -3.74487131E+00 -1.20411920E+00
  1.64452296E+00 -3.89394675E+00 -4.32099068E+00  2.21455932E+00 -2.69138962E+00
Nuclear charges                            R   N=          15
  6.00000000E+00  8.00000000E+00  8.00000000E+00  6.00000000E+00  6.00000000E+00
  8.00000000E+00  6.00000000E+00  8.00000000E+00  6.00000000E+00  1.00000000E+00
  1.00000000E+00  1.00000000E+00  1.00000000E+00  1.00000000E+00  1.00000000E+00
Number of basis functions                  I              183
Number of contracted shells                I               57
Number of primitive shells                 I              132
Highest angular momentum                   I                2
Largest degree of contraction              I                6
Shell types                                I   N=          57
           0          -1          -1          -1           2           0
          -1          -1          -1           2           0          -1
          -1          -1           2           0          -1          -1
          -1           2           0          -1          -1          -1
           2           0          -1          -1          -1           2
           0          -1          -1          -1           2           0
          -1          -1          -1           2           0          -1
          -1          -1           2           0           0           0
           0           0           0           0           0           0
           0           0           0
Number of primitives per shell             I   N=          57
           6           3           1           1           1           6
           3           1           1           1           6           3
           1           1           1           6           3           1
           1           1           6           3           1           1
           1           6           3           1           1           1
           6           3           1           1           1           6
           3           1           1           1           6           3
           1           1           1           3           1           3
           1           3           1           3           1           3
           1           3           1
Shell to atom map                          I   N=          57
           1           1           1           1           1           2
           2           2           2           2           3           3
           3           3           3           4           4           4
           4           4           5           5           5           5
           5           6           6           6           6           6
           7           7           7           7           7           8
           8           8           8           8           9           9
           9           9           9          10          10          11
          11          12          12          13          13          14
          14          15          15
Primitive exponents                        R   N=         132
  3.04752490E+03  4.57369510E+02  1.03948690E+02  2.92101550E+01  9.28666300E+00
  3.16392700E+00  7.86827240E+00  1.88128850E+00  5.44249300E-01  1.68714400E-01
  4.38000000E-02  8.00000000E-01  5.48467170E+03  8.25234950E+02  1.88046960E+02
  5.29645000E+01  1.68975700E+01  5.79963530E+00  1.55396160E+01  3.59993360E+00
  1.01376180E+00  2.70005800E-01  8.45000000E-02  8.00000000E-01  5.48467170E+03
  8.25234950E+02  1.88046960E+02  5.29645000E+01  1.68975700E+01  5.79963530E+00
  1.55396160E+01  3.59993360E+00  1.01376180E+00  2.70005800E-01  8.45000000E-02
  8.00000000E-01  3.04752490E+03  4.57369510E+02  1.03948690E+02  2.92101550E+01
  9.28666300E+00  3.16392700E+00  7.86827240E+00  1.88128850E+00  5.44249300E-01
  1.68714400E-01  4.38000000E-02  8.00000000E-01  3.04752490E+03  4.57369510E+02
  1.03948690E+02  2.92101550E+01  9.28666300E+00  3.16392700E+00  7.86827240E+00
  1.88128850E+00  5.44249300E-01  1.68714400E-01  4.38000000E-02  8.00000000E-01
  5.48467170E+03  8.25234950E+02  1.88046960E+02  5.29645000E+01  1.68975700E+01
  5.79963530E+00  1.55396160E+01  3.59993360E+00  1.01376180E+00  2.70005800E-01
  8.45000000E-02  8.00000000E-01  3.04752490E+03  4.57369510E+02  1.03948690E+02
  2.92101550E+01  9.28666300E+00  3.16392700E+00  7.86827240E+00  1.88128850E+00
  5.44249300E-01  1.68714400E-01  4.38000000E-02  8.00000000E-01  5.48467170E+03
  8.25234950E+02  1.88046960E+02  5.29645000E+01  1.68975700E+01  5.79963530E+00
  1.55396160E+01  3.59993360E+00  1.01376180E+00  2.70005800E-01  8.45000000E-02
  8.00000000E-01  3.04752490E+03  4.57369510E+02  1.03948690E+02  2.92101550E+01
  9.28666300E+00  3.16392700E+00  7.86827240E+00  1.88128850E+00  5.44249300E-01
  1.68714400E-01  4.38000000E-02  8.00000000E-01  1.87311370E+01  2.82539370E+00
  6.40121700E-01  1.61277800E-01  1.87311370E+01  2.82539370E+00  6.40121700E-01
  1.61277800E-01  1.87311370E+01  2.82539370E+00  6.40121700E-01  1.61277800E-01
  1.87311370E+01  2.82539370E+00  6.40121700E-01  1.61277800E-01  1.87311370E+01
  2.82539370E+00  6.40121700E-01  1.61277800E-01  1.87311370E+01  2.82539370E+00
  6.40121700E-01  1.61277800E-01
Contraction coefficients                   R   N=         132
  3.17779390E-03  2.43133190E-02  1.19238892E-01  4.02155213E-01  8.10498179E-01
  6.27542848E-01 -1.19332409E-01 -1.60854212E-01  1.14345648E+00  1.00000000E+00
  1.00000000E+00  1.00000000E+00  3.17155790E-03  2.41622794E-02  1.18550378E-01
  4.03072948E-01  8.14398079E-01  6.20976348E-01 -1.10777504E-01 -1.48026305E-01
  1.13076704E+00  1.00000000E+00  1.00000000E+00  1.00000000E+00  3.17155790E-03
  2.41622794E-02  1.18550378E-01  4.03072948E-01  8.14398079E-01  6.20976348E-01
 -1.10777504E-01 -1.48026305E-01  1.13076704E+00  1.00000000E+00  1.00000000E+00
  1.00000000E+00  3.17779390E-03  2.43133190E-02  1.19238892E-01  4.02155213E-01
  8.10498179E-01  6.27542848E-01 -1.19332409E-01 -1.60854212E-01  1.14345648E+00
  1.00000000E+00  1.00000000E+00  1.00000000E+00  3.17779390E-03  2.43133190E-02
  1.19238892E-01  4.02155213E-01  8.10498179E-01  6.27542848E-01 -1.19332409E-01
 -1.60854212E-01  1.14345648E+00  1.00000000E+00  1.00000000E+00  1.00000000E+00
  3.17155790E-03  2.41622794E-02  1.18550378E-01  4.03072948E-01  8.14398079E-01
  6.20976348E-01 -1.10777504E-01 -1.48026305E-01  1.13076704E+00  1.00000000E+00
  1.00000000E+00  1.00000000E+00  3.17779390E-03  2.43133190E-02  1.19238892E-01
  4.02155213E-01  8.10498179E-01  6.27542848E-01 -1.19332409E-01 -1.60854212E-01
  1.14345648E+00  1.00000000E+00  1.00000000E+00  1.00000000E+00  3.17155790E-03
  2.41622794E-02  1.18550378E-01  4.03072948E-01  8.14398079E-01  6.20976348E-01
 -1.10777504E-01 -1.48026305E-01  1.13076704E+00  1.00000000E+00  1.00000000E+00
  1.00000000E+00  3.17779390E-03  2.43133190E-02  1.19238892E-01  4.02155213E-01
  8.10498179E-01  6.27542848E-01 -1.19332409E-01 -1.60854212E-01  1.14345648E+00
  1.00000000E+00  1.00000000E+00  1.00000000E+00  5.80143482E-02  4.06558998E-01
  1.40946902E+00  1.73205081E+00  5.80143482E-02  4.06558998E-01  1.40946902E+00
  1.73205081E+00  5.80143482E-02  4.06558998E-01  1.40946902E+00  1.73205081E+00
  5.80143482E-02  4.06558998E-01  1.40946902E+00  1.73205081E+00  5.80143482E-02
  4.06558998E-01  1.40946902E+00  1.73205081E+00  5.80143482E-02  4.06558998E-01
  1.40946902E+00  1.73205081E+00
P(S=P) Contraction coefficients            R   N=         132
  0.00000000E+00  0.00000000E+00  0.00000000E+00  0.00000000E+00  0.00000000E+00
  0.00000000E+00  1.19509939E-01  5.48062410E-01  1.28917971E+00  1.73205081E+00
  1.73205081E+00  0.00000000E+00  0.00000000E+00  0.00000000E+00  0.00000000E+00
  0.00000000E+00  0.00000000E+00  0.00000000E+00  1.22757888E-01  5.88469108E-01
  1.25947563E+00  1.73205081E+00  1.73205081E+00  0.00000000E+00  0.00000000E+00
  0.00000000E+00  0.00000000E+00  0.00000000E+00  0.00000000E+00  0.00000000E+00
  1.22757888E-01  5.88469108E-01  1.25947563E+00  1.73205081E+00  1.73205081E+00
  0.00000000E+00  0.00000000E+00  0.00000000E+00  0.00000000E+00  0.00000000E+00
  0.00000000E+00  0.00000000E+00  1.19509939E-01  5.48062410E-01  1.28917971E+00
  1.73205081E+00  1.73205081E+00  0.00000000E+00  0.00000000E+00  0.00000000E+00
  0.00000000E+00  0.00000000E+00  0.00000000E+00  0.00000000E+00  1.19509939E-01
  5.48062410E-01  1.28917971E+00  1.73205081E+00  1.73205081E+00  0.00000000E+00
  0.00000000E+00  0.00000000E+00  0.00000000E+00  0.00000000E+00  0.00000000E+00
  0.00000000E+00  1.22757888E-01  5.88469108E-01  1.25947563E+00  1.73205081E+00
  1.73205081E+00  0.00000000E+00  0.00000000E+00  0.00000000E+00  0.00000000E+00
  0.00000000E+00  0.00000000E+00  0.00000000E+00  1.19509939E-01  5.48062410E-01
  1.28917971E+00  1.73205081E+00  1.73205081E+00  0.00000000E+00  0.00000000E+00
  0.00000000E+00  0.00000000E+00  0.00000000E+00  0.00000000E+00  0.00000000E+00
  1.22757888E-01  5.88469108E-01  1.25947563E+00  1.73205081E+00  1.73205081E+00
  0.00000000E+00  0.00000000E+00  0.00000000E+00  0.00000000E+00  0.00000000E+00
  0.00000000E+00  0.00000000E+00  1.19509939E-01  5.48062410E-01  1.28917971E+00
  1.73205081E+00  1.73205081E+00  0.00000000E+00  0.00000000E+00  0.00000000E+00
  0.00000000E+00  0.00000000E+00  0.00000000E+00  0.00000000E+00  0.00000000E+00
  0.00000000E+00  0.00000000E+00  0.00000000E+00  0.00000000E+00  0.00000000E+00
  0.00000000E+00  0.00000000E+00  0.00000000E+00  0.00000000E+00  0.00000000E+00
  0.00000000E+00  0.00000000E+00  0.00000000E+00  0.00000000E+00  0.00000000E+00
  0.00000000E+00  0.00000000E+00
Coordinates of each shell                  R   N=         171
  3.02236137E+00  5.55513241E-01 -1.20202350E-01  3.02236137E+00  5.55513241E-01
 -1.20202350E-01  3.02236137E+00  5.55513241E-01 -1.20202350E-01  3.02236137E+00
  5.55513241E-01 -1.20202350E-01  3.02236137E+00  5.55513241E-01 -1.20202350E-01
  2.78125214E+00  2.87994216E+00  2.79501647E-01  2.78125214E+00  2.87994216E+00
  2.79501647E-01  2.78125214E+00  2.87994216E+00  2.79501647E-01  2.78125214E+00
  2.87994216E+00  2.79501647E-01  2.78125214E+00  2.87994216E+00  2.79501647E-01
  5.12716227E+00 -6.98081143E-01 -4.71619397E-01  5.12716227E+00 -6.98081143E-01
 -4.71619397E-01  5.12716227E+00 -6.98081143E-01 -4.71619397E-01  5.12716227E+00
 -6.98081143E-01 -4.71619397E-01  5.12716227E+00 -6.98081143E-01 -4.71619397E-01
  6.96548884E-01 -1.06603818E+00  2.18372927E-01  6.96548884E-01 -1.06603818E+00
  2.18372927E-01  6.96548884E-01 -1.06603818E+00  2.18372927E-01  6.96548884E-01
 -1.06603818E+00  2.18372927E-01  6.96548884E-01 -1.06603818E+00  2.18372927E-01
 -2.84093912E+00  8.18327518E-01 -2.74940408E+00 -2.84093912E+00  8.18327518E-01
 -2.74940408E+00 -2.84093912E+00  8.18327518E-01 -2.74940408E+00 -2.84093912E+00
  8.18327518E-01 -2.74940408E+00 -2.84093912E+00  8.18327518E-01 -2.74940408E+00
  9.24188853E-01 -3.44988863E+00  5.97920220E-01  9.24188853E-01 -3.44988863E+00
  5.97920220E-01  9.24188853E-01 -3.44988863E+00  5.97920220E-01  9.24188853E-01
 -3.44988863E+00  5.97920220E-01  9.24188853E-01 -3.44988863E+00  5.97920220E-01
 -2.11578084E+00 -1.34778431E-01 -1.12315091E-02 -2.11578084E+00 -1.34778431E-01
 -1.12315091E-02 -2.11578084E+00 -1.34778431E-01 -1.12315091E-02 -2.11578084E+00
 -1.34778431E-01 -1.12315091E-02 -2.11578084E+00 -1.34778431E-01 -1.12315091E-02
 -3.91271400E+00 -1.85514747E+00  6.46365317E-01 -3.91271400E+00 -1.85514747E+00
  6.46365317E-01 -3.91271400E+00 -1.85514747E+00  6.46365317E-01 -3.91271400E+00
 -1.85514747E+00  6.46365317E-01 -3.91271400E+00 -1.85514747E+00  6.46365317E-01
 -2.49585545E+00  2.09644483E+00  1.86411577E+00 -2.49585545E+00  2.09644483E+00
  1.86411577E+00 -2.49585545E+00  2.09644483E+00  1.86411577E+00 -2.49585545E+00
  2.09644483E+00  1.86411577E+00 -2.49585545E+00  2.09644483E+00  1.86411577E+00
 -4.55429695E+00  2.62907128E+00  1.69985290E+00 -4.55429695E+00  2.62907128E+00
  1.69985290E+00 -1.50163456E+00  3.96872832E+00  1.10632840E+00 -1.50163456E+00
  3.96872832E+00  1.10632840E+00 -2.08544039E+00  2.06494283E+00  3.89677951E+00
 -2.08544039E+00  2.06494283E+00  3.89677951E+00 -3.29064130E+00 -1.15323797E+00
 -3.74487131E+00 -3.29064130E+00 -1.15323797E+00 -3.74487131E+00 -1.20411920E+00
  1.64452296E+00 -3.89394675E+00 -1.20411920E+00  1.64452296E+00 -3.89394675E+00
 -4.32099068E+00  2.21455932E+00 -2.69138962E+00 -4.32099068E+00  2.21455932E+00
 -2.69138962E+00
SCF Energy                                 R     -4.950032910532599E+02
Dipole_Data                                R   N=           3
 -1.04451644E+00  2.52640291E+00 -8.53789278E-01
Quadrupole_Data                            R   N=           6
 -1.11088774E+02 -7.96486993E+00 -8.36859385E+01  3.89397646E+00  1.45789545E+00
 -6.50385029E+01
Octapole_Data                              R   N=          10
  9.56083705E+00  8.53340267E+00  5.88243029E+00 -1.71839788E+01  3.41722760E+00
 -3.51318623E+00 -5.97029539E+00  2.00291609E+01 -9.70682835E+00  1.44265823E+01
Hexadecapole_Data                          R   N=          15
 -1.37685027E+03 -2.54657994E+01 -3.06831301E+02 -5.57342087E+00 -5.46148223E+02
  2.68785792E+01 -6.65651471E-01  4.20753910E+00 -4.97463815E+00 -2.49919011E+02
  1.01000558E+01 -1.38762923E+02 -1.49625417E+01  3.99563144E+00 -3.31076313E+02
Cartesian Forces                           R   N=          45
  5.89171344E-02 -2.07493659E-02  1.25010707E-02  2.55694601E-03  9.14324873E-03
 -7.46598150E-03 -3.39158882E-02  2.72229498E-02 -3.15631478E-03 -2.70863733E-02
 -9.41893788E-02 -8.11989589E-03  4.94785228E-02 -4.61645496E-02 -3.10756363E-02
  3.34340856E-03  6.82379506E-02 -4.99568941E-03 -3.05334026E-02 -3.20949606E-04
  2.91170715E-02  7.80054089E-03 -9.22358791E-03 -3.54937873E-03 -6.07376408E-03
  8.33651677E-02 -2.96724283E-02  1.12357112E-02 -1.04458110E-02  4.48983387E-03
 -1.13181112E-02 -3.35223271E-02  1.68319230E-02  6.84113537E-03 -1.73250081E-02
 -2.69667978E-03 -2.24863893E-03  4.66556072E-02  1.61913899E-02 -1.36758339E-02
 -2.56328449E-03  1.20525071E-02 -1.53213870E-02 -1.20661388E-04 -4.51791221E-04
Current cartesian coordinates              R   N=          45
  3.00647298E+00  5.42760332E-01 -1.11368663E-01  2.73970893E+00  2.89566407E+00
  7.75368998E-02  5.06893356E+00 -6.49758231E-01 -6.47673640E-01  6.50532072E-01
 -1.10890021E+00  2.66060231E-01 -2.74494059E+00  7.97842194E-01 -2.73315130E+00
  9.19256705E-01 -3.43095893E+00  6.97671972E-01 -2.16363565E+00 -1.49897111E-01
  3.69239578E-02 -3.95653421E+00 -1.88917394E+00  6.53842967E-01 -2.54548560E+00
  2.14007182E+00  1.86593327E+00 -4.58402666E+00  2.66992295E+00  1.71548610E+00
 -1.51967249E+00  3.94045341E+00  1.18103277E+00 -2.11775833E+00  1.98915977E+00
  3.88818381E+00 -3.21006592E+00 -1.05383241E+00 -3.76189946E+00 -1.07542266E+00
  1.61923752E+00 -3.77697312E+00 -4.23826112E+00  2.20228941E+00 -2.72503411E+00
SCF Energy                                 R     -4.950251372057953E+02
Dipole_Data                                R   N=           3
 -8.70142174E-01  2.41694012E+00 -6.20764996E-01
Quadrupole_Data                            R   N=           6
 -1.10734451E+02 -8.50412282E+00 -8.35149664E+01  5.20271846E+00  2.13463095E+00
 -6.51096113E+01
Octapole_Data                              R   N=          10
  1.24233582E+01  8.49261677E+00  5.79383210E+00 -1.65797352E+01  4.79402840E+00
 -2.75085649E+00 -6.13847859E+00  1.95995109E+01 -9.53271687E+00  1.22014964E+01
Hexadecapole_Data                          R   N=          15
 -1.36058781E+03 -3.06925538E+01 -3.06210504E+02 -1.04510140E+01 -5.43976175E+02
  4.58632602E+01  2.74299502E+00  9.28644804E+00  1.46262784E+00 -2.48984590E+02
  9.44483645E+00 -1.39606384E+02 -6.08037477E-01  6.78601572E+00 -3.29782926E+02
Cartesian Forces                           R   N=          45
  3.93744629E-02 -8.69693293E-03 -1.20947637E-02  3.55722094E-05  6.86408206E-03
  1.47207854E-03 -2.33138153E-02  1.41812494E-02  6.04099519E-03 -1.57495894E-02
 -6.24765101E-02  2.13368817E-03  3.62709616E-02 -2.86250333E-02 -2.08106217E-02
  2.08149287E-03  4.29253191E-02 -3.62262511E-03 -2.64867594E-02 -6.29785350E-04
  2.04522313E-02  8.67217784E-03 -3.00114872E-03 -2.76774714E-03 -6.67302404E-04
  5.85193269E-02 -2.08303272E-02  6.11554451E-03 -8.74779687E-03  3.30945777E-03
 -6.74836479E-03 -2.42367529E-02  1.01487221E-02  4.08681329E-03 -1.33057148E-02
 -1.31672521E-03 -3.34304344E-03  2.86284537E-02  1.03674678E-02 -9.53200304E-03
 -3.14787732E-04  8.87888681E-03 -1.07961475E-02 -1.08396846E-03 -1.36071764E-03
Current cartesian coordinates              R   N=          45
  2.97178205E+00  5.61775368E-01 -2.22108628E-01  2.71541590E+00  2.91062557E+00
  8.98156888E-02  5.03532654E+00 -5.99515437E-01 -6.23598403E-01  6.05399429E-01
 -1.14429331E+00  2.57129112E-01 -2.70297989E+00  7.60656655E-01 -2.73200973E+00
  9.41766528E-01 -3.39371778E+00  7.20795459E-01 -2.21590706E+00 -1.59383265E-01
  6.47713932E-02 -3.98987619E+00 -1.90113658E+00  6.99126993E-01 -2.55173886E+00
  2.19331756E+00  1.84067843E+00 -4.57149493E+00  2.71670641E+00  1.73292781E+00
 -1.50125316E+00  3.89492262E+00  1.19575287E+00 -2.07473056E+00  1.90051126E+00
  3.83729392E+00 -3.20282946E+00 -9.69097775E-01 -3.77281767E+00 -1.02149446E+00
  1.56705510E+00 -3.69860179E+00 -4.20828485E+00  2.17645423E+00 -2.76258378E+00
SCF Energy                                 R     -4.950369764784056E+02
Dipole_Data                                R   N=           3
 -6.93684099E-01  2.22239948E+00 -8.39417120E-01
Quadrupole_Data                            R   N=           6
 -1.10732273E+02 -8.90358285E+00 -8.32067098E+01  5.24637806E+00  2.20838226E+00
 -6.51070029E+01
Octapole_Data                              R   N=          10
  1.47944345E+01  7.95269549E+00  6.05187279E+00 -1.65418998E+01  3.69069922E+00
 -3.12928448E+00 -6.11253434E+00  2.00974259E+01 -9.66183475E+00  1.16292963E+01
Hexadecapole_Data                          R   N=          15
 -1.35388369E+03 -3.63923409E+01 -3.05972093E+02 -1.51828902E+01 -5.39688413E+02
  4.90831626E+01  3.48792020E+00  1.02632209E+01  3.34564725E+00 -2.48223872E+02
  8.75671369E+00 -1.39534463E+02  2.98346138E+00  7.15964727E+00 -3.29132875E+02
Cartesian Forces                           R   N=          45
  2.40131225E-02 -1.69284506E-03  1.22594138E-02 -3.37433063E-03  5.70640850E-03
 -5.10164087E-03 -8.18167781E-03  3.13565610E-03 -6.10740918E-03 -1.21657800E-02
 -1.96674136E-02 -7.54574027E-03  2.27576460E-02 -6.43052516E-03 -5.99493301E-03
  2.17935577E-03  8.96617624E-03  2.20308055E-03 -1.94887158E-02 -8.94026629E-04
  1.50066730E-02  6.51315214E-03 -2.78069000E-04 -2.73181442E-03 -4.94538161E-04
  2.73936797E-02 -1.04475638E-02  3.89066500E-05 -5.97215626E-03  2.74774979E-03
  1.53880693E-03 -8.43332217E-03  3.11974345E-03  1.31848117E-03 -7.58153190E-03
 -6.64725408E-04 -5.86443886E-03  4.66442302E-03  1.45851733E-04 -3.19574519E-03
  2.96708701E-03  4.30329354E-03 -5.59424476E-03 -1.88354080E-03 -1.19197889E-03
Current cartesian coordinates              R   N=          45
  2.94631356E+00  5.68666102E-01 -2.35214765E-01  2.61769545E+00  2.93683862E+00
 -1.63351100E-01  4.94288685E+00 -5.92111343E-01 -8.14606355E-01  5.63236284E-01
 -1.16454747E+00  3.34366528E-01 -2.60286306E+00  7.63521073E-01 -2.71584907E+00
  9.37124600E-01 -3.36276934E+00  8.89984998E-01 -2.26047285E+00 -1.57913659E-01
  1.07817970E-01 -4.03401466E+00 -1.89465352E+00  6.99515796E-01 -2.58201913E+00
  2.21499236E+00  1.85785696E+00 -4.59642065E+00  2.72684819E+00  1.74152404E+00
 -1.45691616E+00  3.83993993E+00  1.26628213E+00 -2.12902860E+00  1.77756136E+00
  3.83755989E+00 -3.09051148E+00 -9.11489830E-01 -3.81290845E+00 -8.91860082E-01
  1.60754754E+00 -3.55547419E+00 -4.13404907E+00  2.16245063E+00 -2.81093272E+00
SCF Energy                                 R     -4.950420628102040E+02
Dipole_Data                                R   N=           3
 -4.48447425E-01  2.12741925E+00 -5.12557135E-01
Quadrupole_Data                            R   N=           6
 -1.09762139E+02 -8.86604698E+00 -8.31882372E+01  6.50753858E+00  3.10195730E+00
 -6.56995514E+01
Octapole_Data                              R   N=          10
  1.80741907E+01  8.19604819E+00  6.04255455E+00 -1.68992260E+01  5.51440152E+00
 -1.82750709E+00 -6.32112576E+00  1.93490241E+01 -9.49176701E+00  1.02144915E+01
Hexadecapole_Data                          R   N=          15
 -1.32377748E+03 -3.70194926E+01 -3.02830498E+02 -1.62203633E+01 -5.38115068E+02
  6.81440301E+01  7.62749410E+00  1.58142822E+01  1.27497076E+01 -2.47526852E+02
  8.74821931E+00 -1.42075436E+02  1.69875838E+01  1.25332665E+01 -3.35725387E+02
Cartesian Forces                           R   N=          45
  1.54768418E-03  4.39842790E-03 -8.18173406E-03  1.80573728E-03  4.68771565E-04
  2.77099186E-03  2.40951233E-03 -5.62269089E-04  1.19989513E-03 -5.13503199E-03
  3.31202635E-03 -1.80644122E-03  1.22108721E-02  1.24474574E-03 -4.14543455E-06
  1.85365671E-03 -8.09826109E-03  5.04607279E-03 -1.20068859E-02 -2.45376367E-03
  4.36863640E-03  3.27543578E-03 -3.13916981E-04 -1.43374085E-03 -1.23245915E-03
  6.87765155E-03 -2.59127233E-03 -6.33380316E-04 -2.37291318E-03  2.14932573E-03
  4.76208591E-03  1.26208586E-03  4.93560456E-05 -3.93415012E-04 -2.45059047E-03
 -2.54440233E-04 -4.18040309E-03 -2.51873896E-03 -2.54030668E-03 -1.23821232E-03
  2.86416098E-03  1.86725309E-03 -3.04519643E-03 -1.65741651E-03 -6.39450246E-04
Current cartesian coordinates              R   N=          45
  2.93702825E+00  5.44559860E-01 -3.52577796E-01  2.64118078E+00  2.91935760E+00
 -3.43252890E-01  4.92257477E+00 -6.52977908E-01 -8.92730767E-01  5.44332042E-01
 -1.15495222E+00  3.65483454E-01 -2.55757194E+00  7.88099489E-01 -2.70531661E+00
  9.32558445E-01 -3.30558964E+00  1.09175461E+00 -2.28787361E+00 -1.56090840E-01
  1.21067395E-01 -4.05037406E+00 -1.91366318E+00  6.66821213E-01 -2.61450060E+00
  2.21604349E+00  1.87908000E+00 -4.62616427E+00  2.73340927E+00  1.75486555E+00
 -1.43332832E+00  3.82495447E+00  1.33849334E+00 -2.19757934E+00  1.70882419E+00
  3.85054915E+00 -2.94741537E+00 -8.85704140E-01 -3.85885067E+00 -8.68689532E-01
  1.74843711E+00 -3.45377697E+00 -4.16507624E+00  2.10017310E+00 -2.83503734E+00
SCF Energy                                 R     -4.950440234050965E+02
Dipole_Data                                R   N=           3
 -4.65049042E-01  2.19247178E+00 -4.06442615E-01
Quadrupole_Data                            R   N=           6
 -1.09723802E+02 -8.68476779E+00 -8.29498919E+01  6.86050629E+00  3.83908819E+00
 -6.62016146E+01
Octapole_Data                              R   N=          10
  1.86377065E+01  8.87792962E+00  6.27581689E+00 -1.75510664E+01  6.77482034E+00
 -9.51591147E-01 -6.34818583E+00  1.86878668E+01 -9.00434651E+00  9.62990009E+00
Hexadecapole_Data                          R   N=          15
 -1.32189248E+03 -3.48713902E+01 -3.03103232E+02 -1.43915771E+01 -5.31955074E+02
  7.79268071E+01  9.90771148E+00  1.91667186E+01  2.07144777E+01 -2.49592580E+02
  9.58287759E+00 -1.44299292E+02  2.48561543E+01  1.79606495E+01 -3.42981250E+02
Cartesian Forces                           R   N=          45
  1.71482799E-03  2.66515656E-03 -3.69154178E-03 -9.83355108E-05 -3.74225595E-04
  2.11814167E-03  9.49072735E-04 -8.51586910E-04 -3.26477366E-04 -2.52081425E-03
  2.42056681E-03  4.26918761E-04  6.34635118E-03  7.39771843E-04 -5.33537412E-04
  1.29791959E-03 -3.40879239E-03  3.44315866E-03 -7.53309128E-03 -3.47364651E-03
 -1.37201242E-03  2.80397964E-03  2.28376180E-03 -6.63654651E-04  8.19595173E-04
  2.08621533E-03 -7.22301988E-04 -2.66359338E-05 -6.14307820E-04  1.07702606E-03
  2.51918103E-03  5.01030869E-04 -2.01843555E-04 -5.76198767E-04 -1.03942368E-03
  2.87473476E-04 -1.82958441E-03 -7.91499693E-04 -1.27714026E-03 -1.51827161E-03
  1.41215544E-03  1.75026457E-03 -2.34799556E-03 -1.55517605E-03 -3.14473776E-04
Current cartesian coordinates              R   N=          45
  2.92530847E+00  5.47460062E-01 -3.65495969E-01  2.65850276E+00  2.92306679E+00
 -2.42619930E-01  4.88477000E+00 -6.49928144E-01 -9.93219470E-01  5.24419234E-01
 -1.15838661E+00  3.76476975E-01 -2.55966105E+00  7.79298339E-01 -2.71534722E+00
  9.26483095E-01 -3.28239430E+00  1.18078536E+00 -2.31397131E+00 -1.63098376E-01
  1.15239877E-01 -4.07431941E+00 -1.91014722E+00  6.70258893E-01 -2.59128853E+00
  2.22673288E+00  1.86344384E+00 -4.58569321E+00  2.80072318E+00  1.73318068E+00
 -1.32909705E+00  3.78554648E+00  1.34616127E+00 -2.21244508E+00  1.67320494E+00
  3.83130223E+00 -2.84436714E+00 -8.97954678E-01 -3.90250830E+00 -9.24804107E-01
  1.86219951E+00 -3.40019148E+00 -4.25473565E+00  1.97855779E+00 -2.87089507E+00
SCF Energy                                 R     -4.950452987671252E+02
Dipole_Data                                R   N=           3
 -4.46935353E-01  2.19241684E+00 -4.40790740E-01
Quadrupole_Data                            R   N=           6
 -1.09620538E+02 -8.71926855E+00 -8.28250870E+01  7.00001887E+00  3.61037537E+00
 -6.65599974E+01
Octapole_Data                              R   N=          10
  1.97956352E+01  8.63639185E+00  6.25929179E+00 -1.76142649E+01  7.84025322E+00
 -1.38938308E+00 -6.92335822E+00  1.80170117E+01 -8.49672485E+00  1.01672668E+01
Hexadecapole_Data                          R   N=          15
 -1.31627610E+03 -3.78515508E+01 -3.03027497E+02 -1.60061296E+01 -5.29808242E+02
  8.03412412E+01  8.65341135E+00  1.82135162E+01  2.00265343E+01 -2.50843620E+02
  9.32518072E+00 -1.44940429E+02  2.47134909E+01  1.75140232E+01 -3.47569377E+02
Cartesian Forces                           R   N=          45
  1.24538552E-04  1.08662087E-03 -1.52685843E-03  4.54895911E-04 -1.12675777E-03
  1.03884616E-03 -3.73812540E-05 -7.93492973E-04 -1.11804282E-03  2.71609804E-05
  2.35592108E-03  1.25812686E-03  8.77901352E-04  1.26132828E-04  5.38492977E-04
  6.76734194E-04 -9.15310893E-04  2.05234054E-03 -3.61833687E-03 -2.46167845E-03
 -2.87615240E-03  1.81235780E-03  2.44576407E-03 -9.59971260E-04  1.46680253E-03
 -3.20548629E-05  4.03812328E-04 -4.13709284E-04  3.67349088E-04  4.12417769E-04
  2.01071865E-04 -4.14946890E-04  2.27968437E-04 -6.17146120E-04  2.85768693E-05
  3.24250425E-04  2.68980699E-04 -9.64368568E-05 -6.58587391E-04 -8.89271021E-05
  7.02468793E-04  5.78369717E-04 -1.13494325E-03 -1.27215490E-03  3.04987088E-04
Current cartesian coordinates              R   N=          45
  2.92388264E+00  5.20553709E-01 -4.47135901E-01  2.72511977E+00  2.90134148E+00
 -3.06479180E-01  4.81553360E+00 -7.29581798E-01 -1.17383755E+00  5.21796661E-01
 -1.12691027E+00  4.44409048E-01 -2.52190950E+00  7.96324212E-01 -2.70758383E+00
  9.35832013E-01 -3.21242410E+00  1.34628829E+00 -2.32578197E+00 -1.60053527E-01
  1.21085675E-01 -4.07686399E+00 -1.91699378E+00  6.40438165E-01 -2.62517587E+00
  2.22326907E+00  1.87968098E+00 -4.60977071E+00  2.82147249E+00  1.71523624E+00
 -1.31860844E+00  3.76327780E+00  1.41319404E+00 -2.30487278E+00  1.63247583E+00
  3.84810713E+00 -2.68784338E+00 -8.73178738E-01 -3.93239570E+00 -9.35508358E-01
  1.98685304E+00 -3.31441888E+00 -4.28672867E+00  1.88845522E+00 -2.90001685E+00
SCF Energy                                 R     -4.950463409474532E+02
Dipole_Data                                R   N=           3
 -4.74322551E-01  2.24692489E+00 -3.04564457E-01
Quadrupole_Data                            R   N=           6
 -1.09156082E+02 -8.53966334E+00 -8.26128017E+01  7.66579631E+00  3.76196429E+00
 -6.72071498E+01
Octapole_Data                              R   N=          10
  2.15941415E+01  8.70990351E+00  6.23415351E+00 -1.84273863E+01  9.56502776E+00
 -1.12358171E+00 -7.26622523E+00  1.65751054E+01 -7.83918148E+00  9.63066205E+00
Hexadecapole_Data                          R   N=          15
 -1.30423384E+03 -3.54673273E+01 -3.03036652E+02 -1.38589293E+01 -5.22245309E+02
  9.24545455E+01  8.31279750E+00  2.11630078E+01  2.26533094E+01 -2.53956694E+02
  1.05800866E+01 -1.47127782E+02  3.33911270E+01  1.96187598E+01 -3.57171566E+02
Cartesian Forces                           R   N=          45
 -8.13291884E-04 -3.46286637E-04  1.31159260E-03 -1.30642091E-04 -5.70793112E-04
  1.21061184E-03 -1.08891789E-03 -2.19376415E-04 -1.49039044E-03  2.04835191E-03
 -5.85702600E-04 -3.25789481E-03 -2.15614062E-03 -3.82351916E-05  1.05380336E-03
 -4.43614209E-06  1.62833009E-03  2.97559973E-03 -7.73983064E-04 -9.18837193E-04
 -2.78489602E-03  5.22783098E-04  1.39742388E-03 -4.97083515E-04  2.07100357E-03
 -1.46763368E-03  1.14742629E-03 -2.11242842E-04  1.12138307E-03 -1.91361606E-04