
Running Job 1 of 1 prod_d.qcin
qchem prod_d.qcin_62203.0 /tmp/prod_d.qcin/ 1
/programs/x86_64/lib/qchem-4.3.2/bin/mpi/mpirun_qchem -machinefile /var/spool/torque/aux//113260.vali -np 1 /programs/x86_64/lib/qchem-4.3.2/exe/qcprog.exe prod_d.qcin_62203.0 /tmp/prod_d.qcin/

Process 0 of 1 is on bt2600-16.csail.mit.edu - thread support 0
initial socket setup ...start
initial socket setup ...done 
now start server 0 ... 

cmd = ssh thor /programs/x86_64/lib/qchem-4.3.2/bin/get_hostid 1783901975 > /tmp/prod_d.qcin/lic.dat
                  Welcome to Q-Chem
     A Quantum Leap Into The Future Of Chemistry


 Q-Chem 4.3, Q-Chem, Inc., Pleasanton, CA (2015)

 Y. Shao,  Z. Gan,  E. Epifanovsky,  A. T. B. Gilbert,  M. Wormit,  
 J. Kussmann,  A. W. Lange,  A. Behn,  J. Deng,  X. Feng,  D. Ghosh,  
 M. Goldey,  P. R. Horn,  L. D. Jacobson,  I. Kaliman,  R. Z. Khaliullin,  
 T. Kus,  A. Landau,  J. Liu,  E. I. Proynov,  Y. M. Rhee,  R. M. Richard,  
 M. A. Rohrdanz,  R. P. Steele,  E. J. Sundstrom,  H. L. Woodcock III,  
 P. M. Zimmerman,  D. Zuev,  B. Albrecht,  E. Alguire,  B. Austin,  
 S. A. Baeppler,  G. J. O. Beran,  Y. A. Bernard,  E. Berquist,  
 K. Brandhorst,  K. B. Bravaya,  S. T. Brown,  D. Casanova,  C.-M. Chang,  
 Y. Chen,  S. H. Chien,  K. D. Closser,  D. L. Crittenden,  M. Diedenhofen,  
 R. A. DiStasio Jr.,  H. Do,  A. D. Dutoi,  R. G. Edgar,  P.-T. Fang,  
 S. Fatehi,  Q. Feng,  L. Fusti-Molnar,  A. Ghysels,  
 A. Golubeva-Zadorozhnaya,  J. Gomes,  A. Gunina,  M. W. D. Hanson-Heine,  
 P. H. P. Harbach,  A. W. Hauser,  E. G. Hohenstein,  Z. C. Holden,  K. Hui,  
 T.-C. Jagau,  H. Ji,  B. Kaduk,  K. Khistyaev,  Jaehoon Kim,  Jihan Kim,  
 R. A. King,  P. Klunzinger,  D. Kosenkov,  T. Kowalczyk,  C. M. Krauter,  
 K. U. Lao,  A. Laurent,  K. V. Lawler,  S. Lehtola,  S. V. Levchenko,  
 C. Y. Lin,  Y.-S. Lin,  F. Liu,  E. Livshits,  R. C. Lochan,  A. Luenser,  
 P. Manohar,  S. F. Manzer,  S.-P. Mao,  N. Mardirossian,  A. V. Marenich,  
 L. A. Martinez-Martinez,  S. A. Maurer,  N. J. Mayhall,  K. Nanda,  
 C. M. Oana,  R. Olivares-Amaya,  D. P. O'Neill,  J. A. Parkhill,  
 T. M. Perrine,  R. Peverati,  P. A. Pieniazek,  F. Plasser,  A. Prociuk,  
 D. R. Rehn,  E. Rosta,  N. J. Russ,  N. Sergueev,  S. M. Sharada,  
 S. Sharma,  D. W. Small,  A. Sodt,  T. Stauch,  T. Stein,  D. Stuck,  
 Y.-C. Su,  A. J. W. Thom,  T. Tsuchimochi,  L. Vogt,  O. Vydrov,  T. Wang,  
 M. A. Watson,  J. Wenzel,  A. White,  C. F. Williams,  V. Vanovschi,  
 S. Yeganeh,  S. R. Yost,  Z.-Q. You,  I. Y. Zhang,  X. Zhang,  Y. Zhao,  
 B. R. Brooks,  G. K. L. Chan,  D. M. Chipman,  C. J. Cramer,  
 W. A. Goddard III,  M. S. Gordon,  W. J. Hehre,  A. Klamt,  
 H. F. Schaefer III,  M. W. Schmidt,  C. D. Sherrill,  D. G. Truhlar,  
 A. Warshel,  X. Xu,  A. Aspuru-Guzik,  R. Baer,  A. T. Bell,  N. A. Besley,  
 J.-D. Chai,  A. Dreuw,  B. D. Dunietz,  T. R. Furlani,  S. R. Gwaltney,  
 C.-P. Hsu,  Y. Jung,  J. Kong,  D. S. Lambrecht,  W. Liang,  C. Ochsenfeld,  
 V. A. Rassolov,  L. V. Slipchenko,  J. E. Subotnik,  T. Van Voorhis,  
 J. M. Herbert,  A. I. Krylov,  P. M. W. Gill,  M. Head-Gordon

 Contributors to earlier versions of Q-Chem not listed above: 
 R. D. Adamson,  J. Baker,  E. F. C. Byrd,  A. K. Chakraborty,  C.-L. Cheng,  
 H. Dachsel,  R. J. Doerksen,  G. Hawkins,  A. Heyden,  S. Hirata,  
 G. Kedziora,  F. J. Keil,  C. Kelley,  P. P. Korambath,  W. Kurlancheek,  
 A. M. Lee,  M. S. Lee,  D. Liotard,  I. Lotan,  P. E. Maslen,  N. Nair,  
 D. Neuhauser,  R. Olson,  B. Peters,  J. Ritchie,  N. E. Schultz,  
 N. Shenvi,  A. C. Simmonett,  K. S. Thanthiriwatte,  Q. Wu,  W. Zhang

 Please cite Q-Chem as follows:
 Y. Shao et al., Mol. Phys. 113, 184-215 (2015)
 DOI: 10.1080/00268976.2014.952696

 Q-Chem 4.3.0 for Intel X86 Linux

 Parts of Q-Chem use Armadillo 5.200.1 (Boston Tea Smuggler).
 http://arma.sourceforge.net/

 Q-Chem begins on Wed Apr 26 13:16:45 2017  

Host: 
0

     Scratch files written to /tmp/prod_d.qcin//
 Oct1215 13750_ 19228  19214 4150   
 Parallel job on  1  processors
Processing $rem in /programs/x86_64/lib/qchem-4.3.2/config/preferences.
 MEM_TOTAL  2000 

Checking the input file for inconsistencies... 	...done.

--------------------------------------------------------------
User input:
--------------------------------------------------------------
$rem
JOBTYPE Opt
EXCHANGE B3LYP
BASIS 6-31+G(d)
GUI=2
SOLVENT_METHOD ONSAGER
pdb_print 2
NBO TRUE
$end

$comment
product
$end

$solvent
CavityRadius    30
Dielectric     78.39
$end


$molecule
-2 1
C        3.52200       -1.27800        2.47300
O        4.59900       -1.30300        1.83000
O        3.34100       -1.58600        3.73300
C        2.33500       -0.63100        1.79800
C        1.98400       -1.87300       -0.50400
O        1.34900       -0.20700        2.50100
C        2.12700       -0.48800        0.24600
O        1.05700        0.26200       -0.13700
C        3.36100        0.25500       -0.34100
H        3.14100        0.37800       -1.44100
H        4.31400       -0.45900       -0.37600
H        3.75000        1.22500       -0.00600
H        0.82900       -2.09700       -0.30800
H        2.53400       -2.74800       -0.01400
H        2.31800       -1.80800       -1.52600
$end

--------------------------------------------------------------
 ----------------------------------------------------------------
             Standard Nuclear Orientation (Angstroms)
    I     Atom           X                Y                Z
 ----------------------------------------------------------------
    1      C       1.5993647577     0.2939649477    -0.0636083444
    2      O       1.4717752476     1.5239997604     0.1479059017
    3      O       2.7131774295    -0.3694086323    -0.2495702373
    4      C       0.3685977956    -0.5641231098     0.1155579763
    5      C      -1.5033602411     0.4330402734    -1.4549219810
    6      O       0.4890596794    -1.8256024416     0.3164057545
    7      C      -1.1196230033    -0.0713216741    -0.0059434586
    8      O      -2.0705190829    -0.9817017643     0.3420417958
    9      C      -1.3207498247     1.1093908299     0.9864475856
   10      H      -2.4100301548     1.3912446059     0.8995234154
   11      H      -0.7946307867     2.1001605835     0.5854437784
   12      H      -1.1035675305     1.0927206852     2.0620869105
   13      H      -1.7413323845    -0.6102672514    -1.9817005566
   14      H      -0.6371924413     0.8702440711    -2.0605878805
   15      H      -2.2865697953     1.1718943243    -1.4242220512
 ----------------------------------------------------------------
 Molecular Point Group                 C1    NOp =  1
 Largest Abelian Subgroup              C1    NOp =  1
 Nuclear Repulsion Energy =   444.1807725836 hartrees
 There are       35 alpha and       35 beta electrons
 Requested basis set is 6-31+G(d)
 There are 57 shells and 183 basis functions

 Total QAlloc Memory Limit   2000 MB
 Mega-Array Size        61 MB
 MEM_STATIC part        62 MB
 A cutoff of  1.0D-11 yielded   1539 shell pairs
 There are     16463 function pairs
 
 -------------------------------------------------------
 OpenMP Integral Computing Module                       
 Release: version 1.0, May 2013, Q-Chem Inc. Pittsburgh 
 -------------------------------------------------------
 Integral Job Info:
 Integral job number is                      11
 Integral operator is                         1
 short-range coefficients                     0
 long-range coefficients              100000000
 Omega coefficients                           0
 if combine SR and LR in K                    0
 Integral screening is                        0
 Integral computing path is                   2
 max size of driver memory is            800000
 size of driver memory is                593474
 size of scratch memory is              2260544
 max col of scratch BK array               1296
 max len of scratch array in speh3          155
 max len of scratch index in speh4           18
 max int batch size is                      520
 min int batch size is                       52
 fixed nKL is                                52
 max L of basis functions is                  2
 order of int derivative is                   0
 number of shells is                         57
 number of basis is                         183
 number of cartesian basis is               183
 number of contracted shell pairs          1539
 number of primitive shell pairs           5314
 maxK2 (contraction) of shell pair           36
 max number of K2 of shell pair               1
 max number of CS2 of shell pair            200
 max number of PS2 of shell pair           1200
 mem total for path MDJ                   42942
 -------------------------------------------------------
 Smallest overlap matrix eigenvalue = 2.99E-05
 Placing solute cavity origin at the center of mass
 Center of Onsager solute cavity (Angst): (   0.068369,  -0.045840,   0.014625)
 Solvent multipole matrices computed through 15th order

 Scale SEOQF with 1.000000e-01/1.000000e-01/1.000000e-01

 Standard Electronic Orientation quadrupole field applied
 Guess from superposition of atomic densities
 Warning:  Energy on first SCF cycle will be non-variational
 A restricted hybrid HF-DFT SCF calculation will be
 performed using Pulay DIIS extrapolation
 Kirkwood-Onsager solvation model will be applied
 Exchange:     0.2000 Hartree-Fock + 0.0800 Slater + 0.7200 B88
 Correlation:  0.1900 VWN1RPA + 0.8100 LYP
 Using SG-1 standard quadrature grid
 SCF converges when DIIS error is below 1.0E-08
 Kirkwood-Onsager SCRF: 
 Maximum multipole order     = 15
 Solvent dielectric constant = 78.3900
 Cavity radius               = 56.6917 bohr
 Born term (E_born)          = -0.03482849 a.u. = -21.8552 kcal/mol
 CPU 0.00 s  wall 0.00 s
 Inaccurate integrated density:
   Number of electrons =    70
   Numerical integral  =    67.999453991130
   Relative error      =    -2.8579228698 %
 CPU 4.84 s  wall 4.84 s
 ---------------------------------------
  Cycle       Energy         DIIS Error
 ---------------------------------------
    1    -496.0164246574      4.68E-02
 CPU 0.00 s  wall 0.00 s
 CPU 5.30 s  wall 5.30 s
    2    -494.5534379550      1.09E-02
 CPU 0.00 s  wall 0.00 s
 CPU 5.31 s  wall 5.31 s
    3    -489.1968417148      2.87E-02
 CPU 0.00 s  wall 0.00 s
 CPU 5.30 s  wall 5.30 s
    4    -494.6275441544      9.89E-03
 CPU 0.00 s  wall 0.00 s
 CPU 5.29 s  wall 5.29 s
    5    -494.9461872639      3.43E-03
 CPU 0.00 s  wall 0.00 s
 CPU 5.28 s  wall 5.28 s
    6    -494.9870376163      2.15E-03
 CPU 0.00 s  wall 0.00 s
 CPU 5.24 s  wall 5.24 s
    7    -494.9999671159      1.00E-03
 CPU 0.00 s  wall 0.00 s
 CPU 5.21 s  wall 5.21 s
    8    -495.0025138304      4.56E-04
 CPU 0.00 s  wall 0.00 s
 CPU 5.19 s  wall 5.19 s
    9    -495.0032694253      7.87E-05
 CPU 0.00 s  wall 0.00 s
 CPU 5.12 s  wall 5.12 s
   10    -495.0032829558      4.72E-05
 CPU 0.00 s  wall 0.00 s
 CPU 5.05 s  wall 5.05 s
   11    -495.0032904777      1.16E-05
 CPU 0.00 s  wall 0.00 s
 CPU 5.00 s  wall 5.00 s
   12    -495.0032909033      6.36E-06
 CPU 0.00 s  wall 0.00 s
 CPU 4.92 s  wall 4.92 s
   13    -495.0032910339      2.14E-06
 CPU 0.00 s  wall 0.00 s
 CPU 4.87 s  wall 4.87 s
   14    -495.0032910514      5.87E-07
 CPU 0.00 s  wall 0.00 s
 CPU 4.74 s  wall 4.74 s
   15    -495.0032910545      1.26E-07
 CPU 0.00 s  wall 0.00 s
 CPU 4.63 s  wall 4.63 s
   16    -495.0032910535      3.00E-08
 CPU 0.00 s  wall 0.00 s
 CPU 4.17 s  wall 4.17 s
   17    -495.0032910533      9.72E-09 Convergence criterion met
 ---------------------------------------
 SCF time:  CPU 202.99 s  wall 202.44 s
 SCF   energy in the final basis set = -495.0032910533
 Total energy in the final basis set = -495.0032910533
 
 --------------------------------------------------------------
 
                    Orbital Energies (a.u.)
 --------------------------------------------------------------
 
 Alpha MOs
 -- Occupied --
-18.842 -18.810 -18.797 -18.733  -9.980  -9.965  -9.935  -9.912
 -9.896  -0.727  -0.696  -0.627  -0.607  -0.439  -0.389  -0.352
 -0.258  -0.180  -0.154  -0.143  -0.135  -0.115  -0.104  -0.095
 -0.090  -0.063  -0.058  -0.031  -0.022   0.025   0.047   0.062
  0.077   0.118   0.123
 -- Virtual --
  0.229   0.234   0.245   0.266   0.276   0.289   0.296   0.301
  0.303   0.310   0.332   0.337   0.339   0.353   0.362   0.375
  0.382   0.394   0.398   0.407   0.422   0.452   0.466   0.479
  0.486   0.498   0.511   0.522   0.528   0.540   0.545   0.555
  0.566   0.572   0.583   0.588   0.590   0.594   0.596   0.605
  0.625   0.645   0.646   0.655   0.670   0.676   0.680   0.707
  0.732   0.759   0.795   0.886   0.922   0.935   0.994   1.006
  1.029   1.036   1.044   1.077   1.117   1.132   1.161   1.167
  1.207   1.217   1.231   1.252   1.290   1.347   1.356   1.380
  1.393   1.430   1.436   1.505   1.506   1.545   1.579   1.599
  1.612   1.621   1.649   1.663   1.671   1.698   1.710   1.723
  1.734   1.757   1.794   1.813   1.883   1.893   1.957   1.975
  2.003   2.018   2.049   2.065   2.083   2.118   2.137   2.153
  2.186   2.193   2.225   2.239   2.258   2.272   2.290   2.315
  2.347   2.371   2.377   2.427   2.435   2.490   2.500   2.529
  2.586   2.610   2.680   2.712   2.726   2.755   2.827   2.840
  2.931   2.977   3.018   3.054   3.080   3.256   3.292   3.394
  3.444   3.488   3.528   4.415   4.482   4.557   4.596   4.657
  4.804   4.848   4.981   5.069
 --------------------------------------------------------------
 
          Ground-State Mulliken Net Atomic Charges

     Atom                 Charge (a.u.)
  ----------------------------------------
      1 C                     0.336069
      2 O                    -0.565832
      3 O                    -0.646784
      4 C                     0.259503
      5 C                    -0.663658
      6 O                    -0.420316
      7 C                     0.044825
      8 O                    -0.668605
      9 C                    -0.696591
     10 H                     0.168080
     11 H                     0.184409
     12 H                     0.166045
     13 H                     0.190047
     14 H                     0.150684
     15 H                     0.162123
  ----------------------------------------
  Sum of atomic charges =    -2.000000

 -----------------------------------------------------------------
                    Cartesian Multipole Moments
 -----------------------------------------------------------------
    Charge (ESU x 10^10)
                -9.6064
    Dipole Moment (Debye)
         X      -1.0445      Y       2.5264      Z      -0.8538
       Tot       2.8640
    Quadrupole Moments (Debye-Ang)
        XX    -111.0888     XY      -7.9649     YY     -83.6859
        XZ       3.8940     YZ       1.4579     ZZ     -65.0385
    Octopole Moments (Debye-Ang^2)
       XXX       9.5608    XXY       8.5334    XYY       5.8824
       YYY     -17.1840    XXZ       3.4172    XYZ      -3.5132
       YYZ      -5.9703    XZZ      20.0292    YZZ      -9.7068
       ZZZ      14.4266
    Hexadecapole Moments (Debye-Ang^3)
      XXXX   -1376.8503   XXXY     -25.4658   XXYY    -306.8313
      XYYY      -5.5734   YYYY    -546.1482   XXXZ      26.8786
      XXYZ      -0.6657   XYYZ       4.2075   YYYZ      -4.9746
      XXZZ    -249.9190   XYZZ      10.1001   YYZZ    -138.7629
      XZZZ     -14.9625   YZZZ       3.9956   ZZZZ    -331.0763
 -----------------------------------------------------------------
 Calculating analytic gradient of the SCF energy
 CPU 0.00 s  wall 0.00 s
 CPU 8.21 s  wall 8.21 s
 Gradient of SCF Energy
            1           2           3           4           5           6
    1  -0.0589171  -0.0025569   0.0339159   0.0270864  -0.0494785  -0.0033434
    2   0.0207494  -0.0091432  -0.0272229   0.0941894   0.0461645  -0.0682380
    3  -0.0125011   0.0074660   0.0031563   0.0081199   0.0310756   0.0049957
            7           8           9          10          11          12
    1   0.0305334  -0.0078005   0.0060738  -0.0112357   0.0113181  -0.0068411
    2   0.0003209   0.0092236  -0.0833652   0.0104458   0.0335223   0.0173250
    3  -0.0291171   0.0035494   0.0296724  -0.0044898  -0.0168319   0.0026967
           13          14          15
    1   0.0022486   0.0136758   0.0153214
    2  -0.0466556   0.0025633   0.0001207
    3  -0.0161914  -0.0120525   0.0004518
 Max gradient component =       9.419E-02
 RMS gradient           =       3.018E-02
 Gradient time:  CPU 64.58 s  wall 64.64 s
 Geometry Optimization Parameters
   NAtoms,    NIC,     NZ,  NCons,   NDum,   NFix, NCnnct, MaxDiis
       15      96       0       0       0       0       0       0


** GEOMETRY OPTIMIZATION IN DELOCALIZED INTERNAL COORDINATES **
   Searching for a Minimum

   Optimization Cycle:   1

                       Coordinates (Angstroms)
     ATOM                X               Y               Z
      1  C         1.5993647577    0.2939649477   -0.0636083444
      2  O         1.4717752476    1.5239997604    0.1479059017
      3  O         2.7131774295   -0.3694086323   -0.2495702373
      4  C         0.3685977956   -0.5641231098    0.1155579763
      5  C        -1.5033602411    0.4330402734   -1.4549219810
      6  O         0.4890596794   -1.8256024416    0.3164057545
      7  C        -1.1196230033   -0.0713216741   -0.0059434586
      8  O        -2.0705190829   -0.9817017643    0.3420417958
      9  C        -1.3207498247    1.1093908299    0.9864475856
     10  H        -2.4100301548    1.3912446059    0.8995234154
     11  H        -0.7946307867    2.1001605835    0.5854437784
     12  H        -1.1035675305    1.0927206852    2.0620869105
     13  H        -1.7413323845   -0.6102672514   -1.9817005566
     14  H        -0.6371924413    0.8702440711   -2.0605878805
     15  H        -2.2865697953    1.1718943243   -1.4242220512
   Point Group: c1    Number of degrees of freedom:    39


   Energy is   -495.003291053


 Attempting to Generate Delocalized Internal Coordinates

 39 Hessian modes will be used to form the next step
  Hessian Eigenvalues:
     0.002000    0.002000    0.002000    0.004534    0.007720    0.009651
     0.035488    0.048710    0.050482    0.058294    0.063429    0.066248
     0.078804    0.160000    0.160000    0.160000    0.160000    0.160000
     0.160000    0.174708    0.191539    0.249641    0.250000    0.250000
     0.250000    0.251367    0.252033    0.253103    0.258318    0.271943
     0.292703    0.307165    0.312475    0.339632    0.363401    0.526155
     0.645787    0.721335    0.815627

 Minimum Search - Taking Simple RFO Step
 Searching for Lamda that Minimizes Along All modes
 Value Taken    Lamda =  -0.05083264
 Calculated Step too Large.  Step scaled by  0.543126
 Step Taken.  Stepsize is  0.300000

                             Maximum     Tolerance    Cnvgd?
         Gradient           0.049206      0.000300      NO
         Displacement       0.105677      0.001200      NO
         Energy change     *********      0.000001      NO


 New Cartesian Coordinates Obtained by Inverse Iteration

 Displacement from previous Coordinates is:  0.436828
 ----------------------------------------------------------------
             Standard Nuclear Orientation (Angstroms)
    I     Atom           X                Y                Z
 ----------------------------------------------------------------
    1      C       1.5909569857     0.2872163988    -0.0589337583
    2      O       1.4497915316     1.5323194358     0.0410307604
    3      O       2.6823641226    -0.3438372486    -0.3427341302
    4      C       0.3442467475    -0.5868047223     0.1407930112
    5      C      -1.4525600026     0.4221999067    -1.4463213804
    6      O       0.4864496991    -1.8155852743     0.3691921081
    7      C      -1.1449466801    -0.0793221352     0.0195393170
    8      O      -2.0937077394    -0.9997077988     0.3459987977
    9      C      -1.3470129709     1.1324772350     0.9874093629
   10      H      -2.4257624434     1.4128623798     0.9077961479
   11      H      -0.8041760491     2.0851981451     0.6249756261
   12      H      -1.1206694447     1.0526180195     2.0575382619
   13      H      -1.6986937310    -0.5576640941    -1.9907114622
   14      H      -0.5690891625     0.8568635959    -1.9986881032
   15      H      -2.2427911985     1.1654013649    -1.4420259505
 ----------------------------------------------------------------
 Molecular Point Group                 C1    NOp =  1
 Largest Abelian Subgroup              C1    NOp =  1
 Nuclear Repulsion Energy =   444.7612396683 hartrees
 There are       35 alpha and       35 beta electrons
 Requested basis set is 6-31+G(d)
 There are 57 shells and 183 basis functions
 A cutoff of  1.0D-11 yielded   1540 shell pairs
 There are     16484 function pairs
 Smallest overlap matrix eigenvalue = 2.82E-05
 Placing solute cavity origin at the center of mass
 Center of Onsager solute cavity (Angst): (   0.056474,  -0.044984,   0.003599)
 Solvent multipole matrices computed through 15th order

 Scale SEOQF with 1.000000e-01/1.000000e-01/1.000000e-01

 Standard Electronic Orientation quadrupole field applied
 Guess MOs from SCF MO coefficient file
 Reading MOs from coefficient file
 Reading MOs from coefficient file
 A restricted hybrid HF-DFT SCF calculation will be
 performed using Pulay DIIS extrapolation
 Kirkwood-Onsager solvation model will be applied
 Exchange:     0.2000 Hartree-Fock + 0.0800 Slater + 0.7200 B88
 Correlation:  0.1900 VWN1RPA + 0.8100 LYP
 Using SG-1 standard quadrature grid
 SCF converges when DIIS error is below 1.0E-08
 Kirkwood-Onsager SCRF: 
 Maximum multipole order     = 15
 Solvent dielectric constant = 78.3900
 Cavity radius               = 56.6917 bohr
 Born term (E_born)          = -0.03482849 a.u. = -21.8552 kcal/mol
Geometry optimization detected.  Setting ReadMinima to 0
Setting SaveMinima to 0
 CPU 0.00 s  wall 0.00 s
 Inaccurate integrated density:
   Number of electrons =    70
   Numerical integral  =    70.078331710224
   Relative error      =     0.1119024432 %
 CPU 6.91 s  wall 6.91 s
 ---------------------------------------
  Cycle       Energy         DIIS Error
 ---------------------------------------
    1    -495.0410387540      2.63E-03
 CPU 0.00 s  wall 0.00 s
 CPU 5.27 s  wall 5.27 s
    2    -495.0234679529      5.91E-04
 CPU 0.00 s  wall 0.00 s
 CPU 5.26 s  wall 5.26 s
    3    -495.0205701082      1.13E-03
 CPU 0.00 s  wall 0.00 s
 CPU 5.24 s  wall 5.24 s
    4    -495.0249850932      2.04E-04
 CPU 0.00 s  wall 0.00 s
 CPU 5.19 s  wall 5.19 s
    5    -495.0251045002      9.53E-05
 CPU 0.00 s  wall 0.00 s
 CPU 5.13 s  wall 5.13 s
    6    -495.0251327443      3.50E-05
 CPU 0.00 s  wall 0.00 s
 CPU 5.06 s  wall 5.06 s
    7    -495.0251365620      1.26E-05
 CPU 0.00 s  wall 0.00 s
 CPU 4.99 s  wall 4.99 s
    8    -495.0251371030      5.23E-06
 CPU 0.00 s  wall 0.00 s
 CPU 4.92 s  wall 4.92 s
    9    -495.0251371910      1.71E-06
 CPU 0.00 s  wall 0.00 s
 CPU 4.86 s  wall 4.87 s
   10    -495.0251372014      7.07E-07
 CPU 0.00 s  wall 0.00 s
 CPU 4.77 s  wall 4.77 s
   11    -495.0251372036      3.31E-07
 CPU 0.00 s  wall 0.00 s
 CPU 4.71 s  wall 4.71 s
   12    -495.0251372049      1.44E-07
 CPU 0.00 s  wall 0.00 s
 CPU 4.63 s  wall 4.63 s
   13    -495.0251372043      3.06E-08
 CPU 0.00 s  wall 0.00 s
 CPU 4.39 s  wall 4.39 s
   14    -495.0251372058      7.56E-09 Convergence criterion met
 ---------------------------------------
 SCF time:  CPU 167.71 s  wall 167.29 s
 SCF   energy in the final basis set = -495.0251372058
 Total energy in the final basis set = -495.0251372058
 
 --------------------------------------------------------------
 
                    Orbital Energies (a.u.)
 --------------------------------------------------------------
 
 Alpha MOs
 -- Occupied --
-18.842 -18.805 -18.797 -18.734  -9.977  -9.963  -9.933  -9.904
 -9.892  -0.730  -0.704  -0.629  -0.606  -0.440  -0.391  -0.345
 -0.255  -0.178  -0.152  -0.140  -0.136  -0.117  -0.104  -0.096
 -0.093  -0.067  -0.060  -0.036  -0.023   0.022   0.048   0.063
  0.078   0.119   0.122
 -- Virtual --
  0.231   0.236   0.250   0.267   0.278   0.289   0.299   0.301
  0.305   0.310   0.333   0.337   0.340   0.356   0.360   0.375
  0.384   0.394   0.395   0.410   0.424   0.460   0.473   0.483
  0.492   0.497   0.513   0.523   0.531   0.541   0.547   0.555
  0.564   0.569   0.587   0.589   0.592   0.595   0.599   0.606
  0.624   0.647   0.648   0.659   0.672   0.679   0.682   0.713
  0.736   0.765   0.798   0.898   0.918   0.937   0.994   0.997
  1.032   1.036   1.045   1.081   1.116   1.138   1.154   1.165
  1.206   1.229   1.236   1.260   1.288   1.348   1.361   1.373
  1.396   1.435   1.446   1.506   1.522   1.550   1.586   1.606
  1.613   1.626   1.647   1.665   1.667   1.698   1.707   1.728
  1.730   1.773   1.793   1.800   1.876   1.896   1.958   1.979
  1.998   2.008   2.044   2.068   2.078   2.129   2.143   2.157
  2.190   2.192   2.230   2.242   2.259   2.278   2.301   2.326
  2.342   2.381   2.387   2.432   2.460   2.492   2.524   2.553
  2.589   2.621   2.676   2.715   2.729   2.760   2.830   2.856
  2.936   2.972   3.021   3.064   3.087   3.266   3.310   3.405
  3.444   3.497   3.530   4.426   4.490   4.568   4.603   4.656
  4.804   4.852   4.982   5.079
 --------------------------------------------------------------
 
          Ground-State Mulliken Net Atomic Charges

     Atom                 Charge (a.u.)
  ----------------------------------------
      1 C                     0.317650
      2 O                    -0.580335
      3 O                    -0.640678
      4 C                     0.287367
      5 C                    -0.650457
      6 O                    -0.417516
      7 C                     0.001156
      8 O                    -0.673190
      9 C                    -0.691584
     10 H                     0.169080
     11 H                     0.197563
     12 H                     0.164143
     13 H                     0.194901
     14 H                     0.164843
     15 H                     0.157057
  ----------------------------------------
  Sum of atomic charges =    -2.000000

 -----------------------------------------------------------------
                    Cartesian Multipole Moments
 -----------------------------------------------------------------
    Charge (ESU x 10^10)
                -9.6064
    Dipole Moment (Debye)
         X      -0.8701      Y       2.4169      Z      -0.6208
       Tot       2.6427
    Quadrupole Moments (Debye-Ang)
        XX    -110.7345     XY      -8.5041     YY     -83.5150
        XZ       5.2027     YZ       2.1346     ZZ     -65.1096
    Octopole Moments (Debye-Ang^2)
       XXX      12.4234    XXY       8.4926    XYY       5.7938
       YYY     -16.5797    XXZ       4.7940    XYZ      -2.7509
       YYZ      -6.1385    XZZ      19.5995    YZZ      -9.5327
       ZZZ      12.2015
    Hexadecapole Moments (Debye-Ang^3)
      XXXX   -1360.5878   XXXY     -30.6926   XXYY    -306.2105
      XYYY     -10.4510   YYYY    -543.9762   XXXZ      45.8633
      XXYZ       2.7430   XYYZ       9.2864   YYYZ       1.4626
      XXZZ    -248.9846   XYZZ       9.4448   YYZZ    -139.6064
      XZZZ      -0.6080   YZZZ       6.7860   ZZZZ    -329.7829
 -----------------------------------------------------------------
 Calculating analytic gradient of the SCF energy
 CPU 0.00 s  wall 0.00 s
 CPU 8.24 s  wall 8.24 s
 Gradient of SCF Energy
            1           2           3           4           5           6
    1  -0.0393745  -0.0000356   0.0233138   0.0157496  -0.0362710  -0.0020815
    2   0.0086969  -0.0068641  -0.0141812   0.0624765   0.0286250  -0.0429253
    3   0.0120948  -0.0014721  -0.0060410  -0.0021337   0.0208106   0.0036226
            7           8           9          10          11          12
    1   0.0264868  -0.0086722   0.0006673  -0.0061155   0.0067484  -0.0040868
    2   0.0006298   0.0030011  -0.0585193   0.0087478   0.0242368   0.0133057
    3  -0.0204522   0.0027677   0.0208303  -0.0033095  -0.0101487   0.0013167
           13          14          15
    1   0.0033430   0.0095320   0.0107961
    2  -0.0286285   0.0003148   0.0010840
    3  -0.0103675  -0.0088789   0.0013607
 Max gradient component =       6.248E-02
 RMS gradient           =       2.030E-02
 Gradient time:  CPU 64.59 s  wall 64.60 s
 Geometry Optimization Parameters
   NAtoms,    NIC,     NZ,  NCons,   NDum,   NFix, NCnnct, MaxDiis
       15      96       0       0       0       0       0       0

 Cartesian Hessian Update
 Hessian Updated using BFGS Update


** GEOMETRY OPTIMIZATION IN DELOCALIZED INTERNAL COORDINATES **
   Searching for a Minimum

   Optimization Cycle:   2

                       Coordinates (Angstroms)
     ATOM                X               Y               Z
      1  C         1.5909569857    0.2872163988   -0.0589337583
      2  O         1.4497915316    1.5323194358    0.0410307604
      3  O         2.6823641226   -0.3438372486   -0.3427341302
      4  C         0.3442467475   -0.5868047223    0.1407930112
      5  C        -1.4525600026    0.4221999067   -1.4463213804
      6  O         0.4864496991   -1.8155852743    0.3691921081
      7  C        -1.1449466801   -0.0793221352    0.0195393170
      8  O        -2.0937077394   -0.9997077988    0.3459987977
      9  C        -1.3470129709    1.1324772350    0.9874093629
     10  H        -2.4257624434    1.4128623798    0.9077961479
     11  H        -0.8041760491    2.0851981451    0.6249756261
     12  H        -1.1206694447    1.0526180195    2.0575382619
     13  H        -1.6986937310   -0.5576640941   -1.9907114622
     14  H        -0.5690891625    0.8568635959   -1.9986881032
     15  H        -2.2427911985    1.1654013649   -1.4420259505
   Point Group: c1    Number of degrees of freedom:    39


   Energy is   -495.025137206

 Hessian Updated using BFGS Update

 33 Hessian modes will be used to form the next step
  Hessian Eigenvalues:
     0.001997    0.002012    0.004547    0.007717    0.014308    0.035526
     0.048886    0.050461    0.058031    0.062878    0.070042    0.078104
     0.139972    0.162962    0.175063    0.192623    0.215305    0.249763
     0.250187    0.251331    0.252422    0.258257    0.263892    0.276069
     0.290248    0.304919    0.308706    0.339946    0.362551    0.527733
     0.610222    0.689399    0.815330

 Minimum Search - Taking Simple RFO Step
 Searching for Lamda that Minimizes Along All modes
 Value Taken    Lamda =  -0.04298765
 Calculated Step too Large.  Step scaled by  0.423500
 Step Taken.  Stepsize is  0.300000

                             Maximum     Tolerance    Cnvgd?
         Gradient           0.035428      0.000300      NO
         Displacement       0.146978      0.001200      NO
         Energy change     -0.021846      0.000001      NO


 New Cartesian Coordinates Obtained by Inverse Iteration

 Displacement from previous Coordinates is:  0.279399
 ----------------------------------------------------------------
             Standard Nuclear Orientation (Angstroms)
    I     Atom           X                Y                Z
 ----------------------------------------------------------------
    1      C       1.5725993360     0.2972787224    -0.1175348245
    2      O       1.4369362102     1.5402367217     0.0475284157
    3      O       2.6645800561    -0.3172499068    -0.3299940634
    4      C       0.3203635811    -0.6055339400     0.1360668665
    5      C      -1.4303553601     0.4025221669    -1.4457172891
    6      O       0.4983613846    -1.7958781071     0.3814285308
    7      C      -1.1726075176    -0.0843419915     0.0342755452
    8      O      -2.1113515549    -1.0060381502     0.3699620720
    9      C      -1.3503220529     1.1606536709     0.9740450755
   10      H      -2.4191309355     1.4376191202     0.9170259029
   11      H      -0.7944289587     2.0611042870     0.6327651707
   12      H      -1.0979001308     1.0057072490     2.0306084958
   13      H      -1.6948643618    -0.5128244578    -1.9964891323
   14      H      -0.5405515908     0.8292498444    -1.9572157789
   15      H      -2.2269284404     1.1517299790    -1.4618963782
 ----------------------------------------------------------------
 Molecular Point Group                 C1    NOp =  1
 Largest Abelian Subgroup              C1    NOp =  1
 Nuclear Repulsion Energy =   445.9141251064 hartrees
 There are       35 alpha and       35 beta electrons
 Requested basis set is 6-31+G(d)
 There are 57 shells and 183 basis functions
 A cutoff of  1.0D-11 yielded   1543 shell pairs
 There are     16497 function pairs
 Smallest overlap matrix eigenvalue = 2.80E-05
 Placing solute cavity origin at the center of mass
 Center of Onsager solute cavity (Angst): (   0.047970,  -0.039904,   0.004803)
 Solvent multipole matrices computed through 15th order

 Scale SEOQF with 1.000000e-01/1.000000e-01/1.000000e-01

 Standard Electronic Orientation quadrupole field applied
 Guess MOs from SCF MO coefficient file
 Reading MOs from coefficient file
 Reading MOs from coefficient file
 A restricted hybrid HF-DFT SCF calculation will be
 performed using Pulay DIIS extrapolation
 Kirkwood-Onsager solvation model will be applied
 Exchange:     0.2000 Hartree-Fock + 0.0800 Slater + 0.7200 B88
 Correlation:  0.1900 VWN1RPA + 0.8100 LYP
 Using SG-1 standard quadrature grid
 SCF converges when DIIS error is below 1.0E-08
 Kirkwood-Onsager SCRF: 
 Maximum multipole order     = 15
 Solvent dielectric constant = 78.3900
 Cavity radius               = 56.6917 bohr
 Born term (E_born)          = -0.03482849 a.u. = -21.8552 kcal/mol
Geometry optimization detected.  Setting ReadMinima to 0
Setting SaveMinima to 0
 CPU 0.00 s  wall 0.00 s
 Inaccurate integrated density:
   Number of electrons =    70
   Numerical integral  =    70.089339175038
   Relative error      =     0.1276273929 %
 CPU 6.93 s  wall 6.93 s
 ---------------------------------------
  Cycle       Energy         DIIS Error
 ---------------------------------------
    1    -495.0630381900      2.32E-03
 CPU 0.00 s  wall 0.00 s
 CPU 5.26 s  wall 5.26 s
    2    -495.0356683531      5.37E-04
 CPU 0.00 s  wall 0.00 s
 CPU 5.25 s  wall 5.25 s
    3    -495.0329712674      1.08E-03
 CPU 0.00 s  wall 0.00 s
 CPU 5.22 s  wall 5.22 s
    4    -495.0368924002      1.46E-04
 CPU 0.00 s  wall 0.00 s
 CPU 5.17 s  wall 5.17 s
    5    -495.0369515756      8.21E-05
 CPU 0.00 s  wall 0.00 s
 CPU 5.11 s  wall 5.11 s
    6    -495.0369727769      3.12E-05
 CPU 0.00 s  wall 0.00 s
 CPU 5.05 s  wall 5.05 s
    7    -495.0369760350      8.88E-06
 CPU 0.00 s  wall 0.00 s
 CPU 5.01 s  wall 5.01 s
    8    -495.0369763943      4.35E-06
 CPU 0.00 s  wall 0.00 s
 CPU 4.92 s  wall 4.92 s
    9    -495.0369764684      1.30E-06
 CPU 0.00 s  wall 0.00 s
 CPU 4.87 s  wall 4.87 s
   10    -495.0369764780      5.71E-07
 CPU 0.00 s  wall 0.00 s
 CPU 4.74 s  wall 4.74 s
   11    -495.0369764785      2.38E-07
 CPU 0.00 s  wall 0.00 s
 CPU 4.68 s  wall 4.68 s
   12    -495.0369764785      1.19E-07
 CPU 0.00 s  wall 0.00 s
 CPU 4.51 s  wall 4.51 s
   13    -495.0369764783      2.64E-08
 CPU 0.00 s  wall 0.00 s
 CPU 4.34 s  wall 4.34 s
   14    -495.0369764784      6.48E-09 Convergence criterion met
 ---------------------------------------
 SCF time:  CPU 167.55 s  wall 167.01 s
 SCF   energy in the final basis set = -495.0369764784
 Total energy in the final basis set = -495.0369764784
 
 --------------------------------------------------------------
 
                    Orbital Energies (a.u.)
 --------------------------------------------------------------
 
 Alpha MOs
 -- Occupied --
-18.843 -18.801 -18.796 -18.734  -9.974  -9.959  -9.929  -9.896
 -9.885  -0.738  -0.711  -0.632  -0.605  -0.442  -0.393  -0.337
 -0.249  -0.177  -0.152  -0.142  -0.136  -0.121  -0.103  -0.101
 -0.093  -0.071  -0.063  -0.040  -0.025   0.019   0.048   0.063
  0.080   0.120   0.122
 -- Virtual --
  0.231   0.239   0.258   0.267   0.278   0.289   0.300   0.302
  0.305   0.310   0.333   0.337   0.340   0.355   0.359   0.375
  0.385   0.391   0.399   0.414   0.424   0.468   0.480   0.487
  0.498   0.501   0.515   0.524   0.531   0.542   0.548   0.556
  0.565   0.569   0.587   0.591   0.594   0.595   0.605   0.611
  0.623   0.648   0.650   0.662   0.671   0.682   0.686   0.715
  0.741   0.773   0.801   0.906   0.921   0.942   0.991   0.997
  1.033   1.036   1.050   1.084   1.114   1.134   1.150   1.176
  1.205   1.241   1.243   1.265   1.290   1.345   1.373   1.394
  1.405   1.441   1.457   1.511   1.516   1.551   1.591   1.607
  1.615   1.621   1.651   1.664   1.670   1.702   1.705   1.725
  1.733   1.770   1.789   1.817   1.866   1.891   1.961   1.983
  1.988   2.006   2.041   2.070   2.076   2.140   2.141   2.172
  2.187   2.193   2.236   2.253   2.262   2.274   2.316   2.323
  2.351   2.380   2.400   2.445   2.461   2.518   2.564   2.583
  2.595   2.639   2.669   2.717   2.752   2.763   2.837   2.854
  2.943   2.980   3.028   3.079   3.098   3.285   3.324   3.397
  3.458   3.510   3.546   4.429   4.495   4.577   4.615   4.664
  4.804   4.857   4.991   5.088
 --------------------------------------------------------------
 
          Ground-State Mulliken Net Atomic Charges

     Atom                 Charge (a.u.)
  ----------------------------------------
      1 C                     0.287752
      2 O                    -0.586780
      3 O                    -0.627098
      4 C                     0.326149
      5 C                    -0.620625
      6 O                    -0.415169
      7 C                    -0.076326
      8 O                    -0.677182
      9 C                    -0.682240
     10 H                     0.167450
     11 H                     0.212623
     12 H                     0.165343
     13 H                     0.199748
     14 H                     0.172846
     15 H                     0.153510
  ----------------------------------------
  Sum of atomic charges =    -2.000000

 -----------------------------------------------------------------
                    Cartesian Multipole Moments
 -----------------------------------------------------------------
    Charge (ESU x 10^10)
                -9.6064
    Dipole Moment (Debye)
         X      -0.6937      Y       2.2224      Z      -0.8394
       Tot       2.4748
    Quadrupole Moments (Debye-Ang)
        XX    -110.7323     XY      -8.9036     YY     -83.2067
        XZ       5.2464     YZ       2.2084     ZZ     -65.1070
    Octopole Moments (Debye-Ang^2)
       XXX      14.7944    XXY       7.9527    XYY       6.0519
       YYY     -16.5419    XXZ       3.6907    XYZ      -3.1293
       YYZ      -6.1125    XZZ      20.0974    YZZ      -9.6618
       ZZZ      11.6293
    Hexadecapole Moments (Debye-Ang^3)
      XXXX   -1353.8837   XXXY     -36.3923   XXYY    -305.9721
      XYYY     -15.1829   YYYY    -539.6884   XXXZ      49.0832
      XXYZ       3.4879   XYYZ      10.2632   YYYZ       3.3456
      XXZZ    -248.2239   XYZZ       8.7567   YYZZ    -139.5345
      XZZZ       2.9835   YZZZ       7.1596   ZZZZ    -329.1329
 -----------------------------------------------------------------
 Calculating analytic gradient of the SCF energy
 CPU 0.00 s  wall 0.00 s
 CPU 8.24 s  wall 8.24 s
 Gradient of SCF Energy
            1           2           3           4           5           6
    1  -0.0240131   0.0033743   0.0081817   0.0121658  -0.0227576  -0.0021794
    2   0.0016928  -0.0057064  -0.0031357   0.0196674   0.0064305  -0.0089662
    3  -0.0122594   0.0051016   0.0061074   0.0075457   0.0059949  -0.0022031
            7           8           9          10          11          12
    1   0.0194887  -0.0065132   0.0004945  -0.0000389  -0.0015388  -0.0013185
    2   0.0008940   0.0002781  -0.0273937   0.0059722   0.0084333   0.0075815
    3  -0.0150067   0.0027318   0.0104476  -0.0027477  -0.0031197   0.0006647
           13          14          15
    1   0.0058644   0.0031957   0.0055942
    2  -0.0046644  -0.0029671   0.0018835
    3  -0.0001459  -0.0043033   0.0011920
 Max gradient component =       2.739E-02
 RMS gradient           =       9.454E-03
 Gradient time:  CPU 64.63 s  wall 64.66 s
 Geometry Optimization Parameters
   NAtoms,    NIC,     NZ,  NCons,   NDum,   NFix, NCnnct, MaxDiis
       15      96       0       0       0       0       0       0

 Cartesian Hessian Update
 Hessian Updated using BFGS Update


** GEOMETRY OPTIMIZATION IN DELOCALIZED INTERNAL COORDINATES **
   Searching for a Minimum

   Optimization Cycle:   3

                       Coordinates (Angstroms)
     ATOM                X               Y               Z
      1  C         1.5725993360    0.2972787224   -0.1175348245
      2  O         1.4369362102    1.5402367217    0.0475284157
      3  O         2.6645800561   -0.3172499068   -0.3299940634
      4  C         0.3203635811   -0.6055339400    0.1360668665
      5  C        -1.4303553601    0.4025221669   -1.4457172891
      6  O         0.4983613846   -1.7958781071    0.3814285308
      7  C        -1.1726075176   -0.0843419915    0.0342755452
      8  O        -2.1113515549   -1.0060381502    0.3699620720
      9  C        -1.3503220529    1.1606536709    0.9740450755
     10  H        -2.4191309355    1.4376191202    0.9170259029
     11  H        -0.7944289587    2.0611042870    0.6327651707
     12  H        -1.0979001308    1.0057072490    2.0306084958
     13  H        -1.6948643618   -0.5128244578   -1.9964891323
     14  H        -0.5405515908    0.8292498444   -1.9572157789
     15  H        -2.2269284404    1.1517299790   -1.4618963782
   Point Group: c1    Number of degrees of freedom:    39


   Energy is   -495.036976478

 Hessian Updated using BFGS Update

 36 Hessian modes will be used to form the next step
  Hessian Eigenvalues:
     0.001997    0.002000    0.002014    0.004549    0.007719    0.035461
     0.040438    0.049629    0.050528    0.057799    0.062757    0.067340
     0.078993    0.141452    0.160018    0.163183    0.174216    0.192425
     0.235405    0.249894    0.250071    0.251253    0.251794    0.254157
     0.258768    0.270590    0.280705    0.289001    0.303181    0.313631
     0.340017    0.362607    0.526319    0.623975    0.703254    0.815962

 Minimum Search - Taking Simple RFO Step
 Searching for Lamda that Minimizes Along All modes
 Value Taken    Lamda =  -0.01579459
 Calculated Step too Large.  Step scaled by  0.561455
 Step Taken.  Stepsize is  0.300000

                             Maximum     Tolerance    Cnvgd?
         Gradient           0.015848      0.000300      NO
         Displacement       0.129634      0.001200      NO
         Energy change     -0.011839      0.000001      NO


 New Cartesian Coordinates Obtained by Inverse Iteration

 Displacement from previous Coordinates is:  0.518834
 ----------------------------------------------------------------
             Standard Nuclear Orientation (Angstroms)
    I     Atom           X                Y                Z
 ----------------------------------------------------------------
    1      C       1.5591219939     0.3009251417    -0.1244702933
    2      O       1.3852247768     1.5541080684    -0.0864416797
    3      O       2.6156630785    -0.3133318291    -0.4310711189
    4      C       0.2980518059    -0.6162519824     0.1769391465
    5      C      -1.3773758157     0.4040379517    -1.4371654332
    6      O       0.4959049822    -1.7795008977     0.4709597791
    7      C      -1.1961907158    -0.0835643097     0.0570548125
    8      O      -2.1347086280    -1.0026074658     0.3701678176
    9      C      -1.3663456791     1.1721234810     0.9831355656
   10      H      -2.4323210600     1.4429859172     0.9215748366
   11      H      -0.7709668275     2.0320087014     0.6700876467
   12      H      -1.1266334149     0.9406449606     2.0307492387
   13      H      -1.6354282463    -0.4823396457    -2.0177042568
   14      H      -0.4719520308     0.8506775241    -1.8814759169
   15      H      -2.1876445546     1.1443195922    -1.4874815361
 ----------------------------------------------------------------
 Molecular Point Group                 C1    NOp =  1
 Largest Abelian Subgroup              C1    NOp =  1
 Nuclear Repulsion Energy =   446.8061892629 hartrees
 There are       35 alpha and       35 beta electrons
 Requested basis set is 6-31+G(d)
 There are 57 shells and 183 basis functions
 A cutoff of  1.0D-11 yielded   1546 shell pairs
 There are     16543 function pairs
 Smallest overlap matrix eigenvalue = 2.69E-05
 Placing solute cavity origin at the center of mass
 Center of Onsager solute cavity (Angst): (   0.031501,  -0.035004,  -0.005660)
 Solvent multipole matrices computed through 15th order

 Scale SEOQF with 1.000000e-01/1.000000e-01/1.000000e-01

 Standard Electronic Orientation quadrupole field applied
 Guess MOs from SCF MO coefficient file
 Reading MOs from coefficient file
 Reading MOs from coefficient file
 A restricted hybrid HF-DFT SCF calculation will be
 performed using Pulay DIIS extrapolation
 Kirkwood-Onsager solvation model will be applied
 Exchange:     0.2000 Hartree-Fock + 0.0800 Slater + 0.7200 B88
 Correlation:  0.1900 VWN1RPA + 0.8100 LYP
 Using SG-1 standard quadrature grid
 SCF converges when DIIS error is below 1.0E-08
 Kirkwood-Onsager SCRF: 
 Maximum multipole order     = 15
 Solvent dielectric constant = 78.3900
 Cavity radius               = 56.6917 bohr
 Born term (E_born)          = -0.03482849 a.u. = -21.8552 kcal/mol
Geometry optimization detected.  Setting ReadMinima to 0
Setting SaveMinima to 0
 CPU 0.00 s  wall 0.00 s
 CPU 6.96 s  wall 6.96 s
 ---------------------------------------
  Cycle       Energy         DIIS Error
 ---------------------------------------
    1    -495.0455140216      2.68E-03
 CPU 0.00 s  wall 0.00 s
 CPU 5.30 s  wall 5.30 s
    2    -495.0409821468      4.78E-04
 CPU 0.00 s  wall 0.00 s
 CPU 5.28 s  wall 5.28 s
    3    -495.0388747095      9.63E-04
 CPU 0.00 s  wall 0.00 s
 CPU 5.25 s  wall 5.25 s
    4    -495.0419840051      1.46E-04
 CPU 0.00 s  wall 0.00 s
 CPU 5.19 s  wall 5.19 s
    5    -495.0420487989      6.01E-05
 CPU 0.00 s  wall 0.00 s
 CPU 5.14 s  wall 5.14 s
    6    -495.0420592755      3.09E-05
 CPU 0.00 s  wall 0.00 s
 CPU 5.08 s  wall 5.08 s
    7    -495.0420623940      9.84E-06
 CPU 0.00 s  wall 0.00 s
 CPU 5.03 s  wall 5.03 s
    8    -495.0420627733      2.53E-06
 CPU 0.00 s  wall 0.00 s
 CPU 4.96 s  wall 4.96 s
    9    -495.0420628041      8.69E-07
 CPU 0.00 s  wall 0.00 s
 CPU 4.87 s  wall 4.87 s
   10    -495.0420628101      3.20E-07
 CPU 0.00 s  wall 0.00 s
 CPU 4.78 s  wall 4.78 s
   11    -495.0420628095      2.67E-07
 CPU 0.00 s  wall 0.00 s
 CPU 4.64 s  wall 4.64 s
   12    -495.0420628100      3.92E-08
 CPU 0.00 s  wall 0.00 s
 CPU 4.41 s  wall 4.41 s
   13    -495.0420628099      1.21E-08
 CPU 0.00 s  wall 0.00 s
 CPU 4.18 s  wall 4.18 s
   14    -495.0420628102      9.03E-09 Convergence criterion met
 ---------------------------------------
 SCF time:  CPU 167.18 s  wall 166.68 s
 SCF   energy in the final basis set = -495.0420628102
 Total energy in the final basis set = -495.0420628102
 
 --------------------------------------------------------------
 
                    Orbital Energies (a.u.)
 --------------------------------------------------------------
 
 Alpha MOs
 -- Occupied --
-18.843 -18.799 -18.799 -18.735  -9.973  -9.957  -9.927  -9.890
 -9.882  -0.742  -0.714  -0.635  -0.608  -0.442  -0.393  -0.330
 -0.245  -0.175  -0.151  -0.144  -0.133  -0.121  -0.108  -0.104
 -0.089  -0.072  -0.063  -0.041  -0.027   0.016   0.047   0.062
  0.081   0.119   0.123
 -- Virtual --
  0.233   0.240   0.263   0.268   0.280   0.288   0.301   0.304
  0.306   0.310   0.333   0.337   0.341   0.355   0.358   0.374
  0.383   0.392   0.395   0.417   0.426   0.470   0.484   0.491
  0.496   0.507   0.518   0.523   0.532   0.542   0.547   0.556
  0.565   0.568   0.585   0.590   0.596   0.597   0.608   0.612
  0.620   0.647   0.650   0.663   0.673   0.681   0.692   0.720
  0.741   0.777   0.803   0.913   0.921   0.947   0.984   1.001
  1.032   1.043   1.058   1.090   1.110   1.130   1.154   1.168
  1.200   1.246   1.251   1.267   1.291   1.341   1.355   1.404
  1.408   1.443   1.463   1.519   1.531   1.558   1.593   1.607
  1.617   1.633   1.648   1.666   1.669   1.700   1.706   1.721
  1.733   1.781   1.793   1.809   1.854   1.897   1.957   1.974
  1.986   2.004   2.039   2.068   2.077   2.139   2.152   2.177
  2.184   2.193   2.232   2.252   2.261   2.283   2.318   2.328
  2.363   2.386   2.404   2.454   2.474   2.511   2.575   2.593
  2.596   2.645   2.675   2.718   2.740   2.778   2.845   2.857
  2.951   2.976   3.033   3.093   3.106   3.283   3.336   3.397
  3.452   3.510   3.551   4.438   4.503   4.589   4.624   4.668
  4.799   4.849   4.991   5.089
 --------------------------------------------------------------
 
          Ground-State Mulliken Net Atomic Charges

     Atom                 Charge (a.u.)
  ----------------------------------------
      1 C                     0.274575
      2 O                    -0.596131
      3 O                    -0.617526
      4 C                     0.347070
      5 C                    -0.614673
      6 O                    -0.418034
      7 C                    -0.109672
      8 O                    -0.675364
      9 C                    -0.676294
     10 H                     0.168170
     11 H                     0.220988
     12 H                     0.165473
     13 H                     0.195077
     14 H                     0.187562
     15 H                     0.148780
  ----------------------------------------
  Sum of atomic charges =    -2.000000

 -----------------------------------------------------------------
                    Cartesian Multipole Moments
 -----------------------------------------------------------------
    Charge (ESU x 10^10)
                -9.6064
    Dipole Moment (Debye)
         X      -0.4484      Y       2.1274      Z      -0.5126
       Tot       2.2338
    Quadrupole Moments (Debye-Ang)
        XX    -109.7621     XY      -8.8660     YY     -83.1882
        XZ       6.5075     YZ       3.1020     ZZ     -65.6996
    Octopole Moments (Debye-Ang^2)
       XXX      18.0742    XXY       8.1960    XYY       6.0426
       YYY     -16.8992    XXZ       5.5144    XYZ      -1.8275
       YYZ      -6.3211    XZZ      19.3490    YZZ      -9.4918
       ZZZ      10.2145
    Hexadecapole Moments (Debye-Ang^3)
      XXXX   -1323.7775   XXXY     -37.0195   XXYY    -302.8305
      XYYY     -16.2204   YYYY    -538.1151   XXXZ      68.1440
      XXYZ       7.6275   XYYZ      15.8143   YYYZ      12.7497
      XXZZ    -247.5269   XYZZ       8.7482   YYZZ    -142.0754
      XZZZ      16.9876   YZZZ      12.5333   ZZZZ    -335.7254
 -----------------------------------------------------------------
 Calculating analytic gradient of the SCF energy
 CPU 0.00 s  wall 0.00 s
 CPU 8.31 s  wall 8.31 s
 Gradient of SCF Energy
            1           2           3           4           5           6
    1  -0.0015477  -0.0018057  -0.0024095   0.0051350  -0.0122109  -0.0018537
    2  -0.0043984  -0.0004688   0.0005623  -0.0033120  -0.0012447   0.0080983
    3   0.0081817  -0.0027710  -0.0011999   0.0018064   0.0000041  -0.0050461
            7           8           9          10          11          12
    1   0.0120069  -0.0032754   0.0012325   0.0006334  -0.0047621   0.0003934
    2   0.0024538   0.0003139  -0.0068777   0.0023729  -0.0012621   0.0024506
    3  -0.0043686   0.0014337   0.0025913  -0.0021493  -0.0000494   0.0002544
           13          14          15
    1   0.0041804   0.0012382   0.0030452
    2   0.0025187  -0.0028642   0.0016574
    3   0.0025403  -0.0018673   0.0006395
 Max gradient component =       1.221E-02
 RMS gradient           =       4.022E-03
 Gradient time:  CPU 65.19 s  wall 65.17 s
 Geometry Optimization Parameters
   NAtoms,    NIC,     NZ,  NCons,   NDum,   NFix, NCnnct, MaxDiis
       15      96       0       0       0       0       0       0

 Cartesian Hessian Update
 Hessian Updated using BFGS Update


** GEOMETRY OPTIMIZATION IN DELOCALIZED INTERNAL COORDINATES **
   Searching for a Minimum

   Optimization Cycle:   4

                       Coordinates (Angstroms)
     ATOM                X               Y               Z
      1  C         1.5591219939    0.3009251417   -0.1244702933
      2  O         1.3852247768    1.5541080684   -0.0864416797
      3  O         2.6156630785   -0.3133318291   -0.4310711189
      4  C         0.2980518059   -0.6162519824    0.1769391465
      5  C        -1.3773758157    0.4040379517   -1.4371654332
      6  O         0.4959049822   -1.7795008977    0.4709597791
      7  C        -1.1961907158   -0.0835643097    0.0570548125
      8  O        -2.1347086280   -1.0026074658    0.3701678176
      9  C        -1.3663456791    1.1721234810    0.9831355656
     10  H        -2.4323210600    1.4429859172    0.9215748366
     11  H        -0.7709668275    2.0320087014    0.6700876467
     12  H        -1.1266334149    0.9406449606    2.0307492387
     13  H        -1.6354282463   -0.4823396457   -2.0177042568
     14  H        -0.4719520308    0.8506775241   -1.8814759169
     15  H        -2.1876445546    1.1443195922   -1.4874815361
   Point Group: c1    Number of degrees of freedom:    39


   Energy is   -495.042062810

 Hessian Updated using BFGS Update

 37 Hessian modes will be used to form the next step
  Hessian Eigenvalues:
     0.001989    0.002001    0.002019    0.004546    0.007680    0.035512
     0.046989    0.050279    0.052009    0.061393    0.065014    0.077423
     0.098157    0.143223    0.160014    0.160222    0.163121    0.176960
     0.193094    0.240355    0.249937    0.251132    0.251251    0.252934
     0.254181    0.259682    0.273802    0.280352    0.288173    0.302226
     0.313844    0.340016    0.362586    0.526149    0.635443    0.729754
     0.815472

 Minimum Search - Taking Simple RFO Step
 Searching for Lamda that Minimizes Along All modes
 Value Taken    Lamda =  -0.00507288
 Calculated Step too Large.  Step scaled by  0.495289
 Step Taken.  Stepsize is  0.300000

                             Maximum     Tolerance    Cnvgd?
         Gradient           0.006513      0.000300      NO
         Displacement       0.147852      0.001200      NO
         Energy change     -0.005086      0.000001      NO


 New Cartesian Coordinates Obtained by Inverse Iteration

 Displacement from previous Coordinates is:  0.431626
 ----------------------------------------------------------------
             Standard Nuclear Orientation (Angstroms)
    I     Atom           X                Y                Z
 ----------------------------------------------------------------
    1      C       1.5542084200     0.2881686681    -0.1865761347
    2      O       1.3976526791     1.5448575122    -0.1816416070
    3      O       2.6049143875    -0.3455410281    -0.4724127772
    4      C       0.2880481119    -0.6111743923     0.1934055147
    5      C      -1.3534087855     0.4170442897    -1.4315918978
    6      O       0.4934886767    -1.7492427067     0.5777316585
    7      C      -1.2106905778    -0.0825997152     0.0640661066
    8      O      -2.1433656468    -1.0126669462     0.3528665898
    9      C      -1.3835341327     1.1726797108     0.9943663110
   10      H      -2.4480607064     1.4464578937     0.9286348563
   11      H      -0.7584846821     2.0240787372     0.7083001749
   12      H      -1.1629089048     0.9042708199     2.0376228613
   13      H      -1.5597050419    -0.4686944467    -2.0420158344
   14      H      -0.4596907037     0.9252330708    -1.8276600639
   15      H      -2.2040634288     1.1113637409    -1.5002371496
 ----------------------------------------------------------------
 Molecular Point Group                 C1    NOp =  1
 Largest Abelian Subgroup              C1    NOp =  1
 Nuclear Repulsion Energy =   446.1552635209 hartrees
 There are       35 alpha and       35 beta electrons
 Requested basis set is 6-31+G(d)
 There are 57 shells and 183 basis functions
 A cutoff of  1.0D-11 yielded   1543 shell pairs
 There are     16537 function pairs
 Smallest overlap matrix eigenvalue = 2.66E-05
 Placing solute cavity origin at the center of mass
 Center of Onsager solute cavity (Angst): (   0.028505,  -0.036876,  -0.012930)
 Solvent multipole matrices computed through 15th order

 Scale SEOQF with 1.000000e-01/1.000000e-01/1.000000e-01

 Standard Electronic Orientation quadrupole field applied
 Guess MOs from SCF MO coefficient file
 Reading MOs from coefficient file
 Reading MOs from coefficient file
 A restricted hybrid HF-DFT SCF calculation will be
 performed using Pulay DIIS extrapolation
 Kirkwood-Onsager solvation model will be applied
 Exchange:     0.2000 Hartree-Fock + 0.0800 Slater + 0.7200 B88
 Correlation:  0.1900 VWN1RPA + 0.8100 LYP
 Using SG-1 standard quadrature grid
 SCF converges when DIIS error is below 1.0E-08
 Kirkwood-Onsager SCRF: 
 Maximum multipole order     = 15
 Solvent dielectric constant = 78.3900
 Cavity radius               = 56.6917 bohr
 Born term (E_born)          = -0.03482849 a.u. = -21.8552 kcal/mol
Geometry optimization detected.  Setting ReadMinima to 0
Setting SaveMinima to 0
 CPU 0.00 s  wall 0.00 s
 CPU 6.98 s  wall 6.98 s
 ---------------------------------------
  Cycle       Energy         DIIS Error
 ---------------------------------------
    1    -495.0334842207      1.92E-03
 CPU 0.00 s  wall 0.00 s
 CPU 5.28 s  wall 5.28 s
    2    -495.0436395081      2.71E-04
 CPU 0.00 s  wall 0.00 s
 CPU 5.24 s  wall 5.24 s
    3    -495.0432319116      4.75E-04
 CPU 0.00 s  wall 0.00 s
 CPU 5.23 s  wall 5.23 s
    4    -495.0439994886      7.94E-05
 CPU 0.00 s  wall 0.00 s
 CPU 5.17 s  wall 5.17 s
    5    -495.0440190486      3.24E-05
 CPU 0.00 s  wall 0.00 s
 CPU 5.08 s  wall 5.08 s
    6    -495.0440227015      1.40E-05
 CPU 0.00 s  wall 0.00 s
 CPU 5.03 s  wall 5.03 s
    7    -495.0440232571      6.41E-06
 CPU 0.00 s  wall 0.00 s
 CPU 4.96 s  wall 4.96 s
    8    -495.0440233816      2.52E-06
 CPU 0.00 s  wall 0.00 s
 CPU 4.86 s  wall 4.86 s
    9    -495.0440234034      6.68E-07
 CPU 0.00 s  wall 0.00 s
 CPU 4.81 s  wall 4.81 s
   10    -495.0440234038      2.61E-07
 CPU 0.00 s  wall 0.00 s
 CPU 4.66 s  wall 4.66 s
   11    -495.0440234045      1.26E-07
 CPU 0.00 s  wall 0.00 s
 CPU 4.53 s  wall 4.53 s
   12    -495.0440234040      4.76E-08
 CPU 0.00 s  wall 0.00 s
 CPU 4.42 s  wall 4.42 s
   13    -495.0440234051      8.57E-09 Convergence criterion met
 ---------------------------------------
 SCF time:  CPU 155.08 s  wall 154.70 s
 SCF   energy in the final basis set = -495.0440234051
 Total energy in the final basis set = -495.0440234051
 
 --------------------------------------------------------------
 
                    Orbital Energies (a.u.)
 --------------------------------------------------------------
 
 Alpha MOs
 -- Occupied --
-18.844 -18.800 -18.799 -18.737  -9.974  -9.958  -9.928  -9.889
 -9.885  -0.741  -0.714  -0.635  -0.609  -0.442  -0.393  -0.328
 -0.243  -0.174  -0.150  -0.145  -0.132  -0.121  -0.111  -0.104
 -0.088  -0.073  -0.062  -0.041  -0.028   0.015   0.047   0.062
  0.080   0.118   0.122
 -- Virtual --
  0.234   0.239   0.264   0.267   0.280   0.288   0.301   0.304
  0.306   0.310   0.334   0.338   0.341   0.354   0.358   0.374
  0.382   0.391   0.395   0.418   0.426   0.470   0.484   0.492
  0.496   0.504   0.516   0.521   0.531   0.542   0.546   0.554
  0.564   0.568   0.582   0.590   0.596   0.597   0.607   0.610
  0.619   0.644   0.646   0.663   0.673   0.682   0.691   0.722
  0.738   0.778   0.802   0.911   0.922   0.944   0.981   1.001
  1.032   1.047   1.064   1.090   1.104   1.123   1.154   1.169
  1.194   1.244   1.249   1.270   1.288   1.338   1.357   1.400
  1.408   1.445   1.458   1.525   1.530   1.555   1.595   1.610
  1.617   1.631   1.647   1.664   1.672   1.701   1.707   1.719
  1.735   1.778   1.795   1.814   1.846   1.893   1.957   1.965
  1.985   2.002   2.034   2.065   2.075   2.141   2.152   2.179
  2.182   2.192   2.230   2.249   2.262   2.278   2.313   2.329
  2.367   2.382   2.404   2.455   2.473   2.513   2.569   2.583
  2.593   2.635   2.674   2.716   2.737   2.778   2.839   2.856
  2.944   2.978   3.029   3.093   3.102   3.274   3.332   3.394
  3.451   3.504   3.548   4.436   4.502   4.586   4.631   4.662
  4.792   4.845   4.988   5.081
 --------------------------------------------------------------
 
          Ground-State Mulliken Net Atomic Charges

     Atom                 Charge (a.u.)
  ----------------------------------------
      1 C                     0.268853
      2 O                    -0.597753
      3 O                    -0.615009
      4 C                     0.346574
      5 C                    -0.623277
      6 O                    -0.420427
      7 C                    -0.094258
      8 O                    -0.673876
      9 C                    -0.679611
     10 H                     0.168468
     11 H                     0.218765
     12 H                     0.168260
     13 H                     0.190239
     14 H                     0.195322
     15 H                     0.147730
  ----------------------------------------
  Sum of atomic charges =    -2.000000

 -----------------------------------------------------------------
                    Cartesian Multipole Moments
 -----------------------------------------------------------------
    Charge (ESU x 10^10)
                -9.6064
    Dipole Moment (Debye)
         X      -0.4650      Y       2.1925      Z      -0.4064
       Tot       2.2778
    Quadrupole Moments (Debye-Ang)
        XX    -109.7238     XY      -8.6848     YY     -82.9499
        XZ       6.8605     YZ       3.8391     ZZ     -66.2016
    Octopole Moments (Debye-Ang^2)
       XXX      18.6377    XXY       8.8779    XYY       6.2758
       YYY     -17.5511    XXZ       6.7748    XYZ      -0.9516
       YYZ      -6.3482    XZZ      18.6879    YZZ      -9.0043
       ZZZ       9.6299
    Hexadecapole Moments (Debye-Ang^3)
      XXXX   -1321.8925   XXXY     -34.8714   XXYY    -303.1032
      XYYY     -14.3916   YYYY    -531.9551   XXXZ      77.9268
      XXYZ       9.9077   XYYZ      19.1667   YYYZ      20.7145
      XXZZ    -249.5926   XYZZ       9.5829   YYZZ    -144.2993
      XZZZ      24.8562   YZZZ      17.9606   ZZZZ    -342.9812
 -----------------------------------------------------------------
 Calculating analytic gradient of the SCF energy
 CPU 0.00 s  wall 0.00 s
 CPU 8.30 s  wall 8.30 s
 Gradient of SCF Energy
            1           2           3           4           5           6
    1  -0.0017148   0.0000983  -0.0009491   0.0025208  -0.0063464  -0.0012979
    2  -0.0026652   0.0003742   0.0008516  -0.0024206  -0.0007398   0.0034088
    3   0.0036915  -0.0021181   0.0003265  -0.0004269   0.0005335  -0.0034432
            7           8           9          10          11          12
    1   0.0075331  -0.0028040  -0.0008196   0.0000266  -0.0025192   0.0005762
    2   0.0034736  -0.0022838  -0.0020862   0.0006143  -0.0005010   0.0010394
    3   0.0013720   0.0006637   0.0007223  -0.0010770   0.0002018  -0.0002875
           13          14          15
    1   0.0018296   0.0015183   0.0023480
    2   0.0007915  -0.0014122   0.0015552
    3   0.0012771  -0.0017503   0.0003145
 Max gradient component =       7.533E-03
 RMS gradient           =       2.257E-03
 Gradient time:  CPU 64.93 s  wall 64.95 s
 Geometry Optimization Parameters
   NAtoms,    NIC,     NZ,  NCons,   NDum,   NFix, NCnnct, MaxDiis
       15      96       0       0       0       0       0       0

 Cartesian Hessian Update
 Hessian Updated using BFGS Update


** GEOMETRY OPTIMIZATION IN DELOCALIZED INTERNAL COORDINATES **
   Searching for a Minimum

   Optimization Cycle:   5

                       Coordinates (Angstroms)
     ATOM                X               Y               Z
      1  C         1.5542084200    0.2881686681   -0.1865761347
      2  O         1.3976526791    1.5448575122   -0.1816416070
      3  O         2.6049143875   -0.3455410281   -0.4724127772
      4  C         0.2880481119   -0.6111743923    0.1934055147
      5  C        -1.3534087855    0.4170442897   -1.4315918978
      6  O         0.4934886767   -1.7492427067    0.5777316585
      7  C        -1.2106905778   -0.0825997152    0.0640661066
      8  O        -2.1433656468   -1.0126669462    0.3528665898
      9  C        -1.3835341327    1.1726797108    0.9943663110
     10  H        -2.4480607064    1.4464578937    0.9286348563
     11  H        -0.7584846821    2.0240787372    0.7083001749
     12  H        -1.1629089048    0.9042708199    2.0376228613
     13  H        -1.5597050419   -0.4686944467   -2.0420158344
     14  H        -0.4596907037    0.9252330708   -1.8276600639
     15  H        -2.2040634288    1.1113637409   -1.5002371496
   Point Group: c1    Number of degrees of freedom:    39


   Energy is   -495.044023405

 Hessian Updated using BFGS Update

 38 Hessian modes will be used to form the next step
  Hessian Eigenvalues:
     0.001665    0.002002    0.003352    0.004508    0.006701    0.035427
     0.042056    0.050505    0.054202    0.060947    0.072703    0.077167
     0.100240    0.142546    0.160013    0.160042    0.161185    0.163044
     0.183151    0.198336    0.239526    0.249941    0.251197    0.252378
     0.253484    0.255175    0.263428    0.275013    0.283472    0.285868
     0.305024    0.317679    0.340195    0.362658    0.529754    0.633053
     0.723136    0.816183

 Minimum Search - Taking Simple RFO Step
 Searching for Lamda that Minimizes Along All modes
 Value Taken    Lamda =  -0.00351168
 Calculated Step too Large.  Step scaled by  0.447749
 Step Taken.  Stepsize is  0.300000

                             Maximum     Tolerance    Cnvgd?
         Gradient           0.003740      0.000300      NO
         Displacement       0.185528      0.001200      NO
         Energy change     -0.001961      0.000001      NO


 New Cartesian Coordinates Obtained by Inverse Iteration

 Displacement from previous Coordinates is:  0.332400
 ----------------------------------------------------------------
             Standard Nuclear Orientation (Angstroms)
    I     Atom           X                Y                Z
 ----------------------------------------------------------------
    1      C       1.5480065791     0.2897033888    -0.1934121376
    2      O       1.4068190732     1.5468203311    -0.1283889378
    3      O       2.5849089621    -0.3439271624    -0.5255891087
    4      C       0.2775107077    -0.6129917971     0.1992230358
    5      C      -1.3545142956     0.4123869217    -1.4368998688
    6      O       0.4902737398    -1.7369682627     0.6248447015
    7      C      -1.2245008814    -0.0863079436     0.0609823167
    8      O      -2.1560369815    -1.0108063789     0.3546857313
    9      C      -1.3712508384     1.1783362923     0.9860920153
   10      H      -2.4266443429     1.4820788825     0.9171597202
   11      H      -0.7033278679     2.0032249272     0.7123578648
   12      H      -1.1707755154     0.8854219238     2.0274378261
   13      H      -1.5051742711    -0.4751771520    -2.0651184590
   14      H      -0.4893852579     0.9854335448    -1.7993038453
   15      H      -2.2515091453     1.0470076927    -1.5192122460
 ----------------------------------------------------------------
 Molecular Point Group                 C1    NOp =  1
 Largest Abelian Subgroup              C1    NOp =  1
 Nuclear Repulsion Energy =   445.8436507304 hartrees
 There are       35 alpha and       35 beta electrons
 Requested basis set is 6-31+G(d)
 There are 57 shells and 183 basis functions
 A cutoff of  1.0D-11 yielded   1546 shell pairs
 There are     16545 function pairs
 Smallest overlap matrix eigenvalue = 2.70E-05
 Placing solute cavity origin at the center of mass
 Center of Onsager solute cavity (Angst): (   0.023786,  -0.035088,  -0.008777)
 Solvent multipole matrices computed through 15th order

 Scale SEOQF with 1.000000e-01/1.000000e-01/1.000000e-01

 Standard Electronic Orientation quadrupole field applied
 Guess MOs from SCF MO coefficient file
 Reading MOs from coefficient file
 Reading MOs from coefficient file
 A restricted hybrid HF-DFT SCF calculation will be
 performed using Pulay DIIS extrapolation
 Kirkwood-Onsager solvation model will be applied
 Exchange:     0.2000 Hartree-Fock + 0.0800 Slater + 0.7200 B88
 Correlation:  0.1900 VWN1RPA + 0.8100 LYP
 Using SG-1 standard quadrature grid
 SCF converges when DIIS error is below 1.0E-08
 Kirkwood-Onsager SCRF: 
 Maximum multipole order     = 15
 Solvent dielectric constant = 78.3900
 Cavity radius               = 56.6917 bohr
 Born term (E_born)          = -0.03482849 a.u. = -21.8552 kcal/mol
Geometry optimization detected.  Setting ReadMinima to 0
Setting SaveMinima to 0
 CPU 0.00 s  wall 0.00 s
 CPU 6.96 s  wall 6.96 s
 ---------------------------------------
  Cycle       Energy         DIIS Error
 ---------------------------------------
    1    -495.0391811243      1.54E-03
 CPU 0.00 s  wall 0.00 s
 CPU 5.26 s  wall 5.26 s
    2    -495.0450689553      2.17E-04
 CPU 0.00 s  wall 0.00 s
 CPU 5.24 s  wall 5.24 s
    3    -495.0445653604      4.61E-04
 CPU 0.00 s  wall 0.00 s
 CPU 5.22 s  wall 5.22 s
    4    -495.0452909247      4.42E-05
 CPU 0.00 s  wall 0.00 s
 CPU 5.15 s  wall 5.15 s
    5    -495.0452962974      2.61E-05
 CPU 0.00 s  wall 0.00 s
 CPU 5.05 s  wall 5.05 s
    6    -495.0452979628      1.53E-05
 CPU 0.00 s  wall 0.00 s
 CPU 5.03 s  wall 5.03 s
    7    -495.0452987036      4.05E-06
 CPU 0.00 s  wall 0.00 s
 CPU 4.97 s  wall 4.97 s
    8    -495.0452987589      1.52E-06
 CPU 0.00 s  wall 0.00 s
 CPU 4.81 s  wall 4.81 s
    9    -495.0452987661      3.44E-07
 CPU 0.00 s  wall 0.00 s
 CPU 4.74 s  wall 4.74 s
   10    -495.0452987676      1.94E-07
 CPU 0.00 s  wall 0.00 s
 CPU 4.61 s  wall 4.61 s
   11    -495.0452987673      6.41E-08
 CPU 0.00 s  wall 0.00 s
 CPU 4.50 s  wall 4.50 s
   12    -495.0452987665      1.19E-08
 CPU 0.00 s  wall 0.00 s
 CPU 4.08 s  wall 4.08 s
   13    -495.0452987671      4.00E-09 Convergence criterion met
 ---------------------------------------
 SCF time:  CPU 153.26 s  wall 152.78 s
 SCF   energy in the final basis set = -495.0452987671
 Total energy in the final basis set = -495.0452987671
 
 --------------------------------------------------------------
 
                    Orbital Energies (a.u.)
 --------------------------------------------------------------
 
 Alpha MOs
 -- Occupied --
-18.844 -18.801 -18.800 -18.738  -9.975  -9.958  -9.929  -9.890
 -9.884  -0.740  -0.714  -0.636  -0.610  -0.443  -0.393  -0.326
 -0.242  -0.174  -0.150  -0.146  -0.132  -0.122  -0.110  -0.105
 -0.088  -0.072  -0.062  -0.041  -0.030   0.014   0.046   0.061
  0.079   0.116   0.122
 -- Virtual --
  0.234   0.240   0.265   0.268   0.280   0.287   0.301   0.304
  0.306   0.311   0.334   0.337   0.342   0.353   0.357   0.374
  0.381   0.388   0.395   0.417   0.427   0.469   0.484   0.493
  0.497   0.503   0.515   0.522   0.532   0.541   0.545   0.553
  0.562   0.569   0.580   0.591   0.594   0.596   0.606   0.607
  0.617   0.641   0.646   0.663   0.671   0.682   0.690   0.721
  0.737   0.777   0.802   0.907   0.925   0.941   0.982   1.001
  1.032   1.048   1.069   1.090   1.100   1.121   1.152   1.170
  1.192   1.241   1.249   1.272   1.286   1.335   1.350   1.400
  1.411   1.443   1.459   1.524   1.529   1.560   1.597   1.613
  1.614   1.628   1.648   1.663   1.670   1.699   1.711   1.720
  1.735   1.778   1.795   1.820   1.844   1.896   1.956   1.963
  1.978   1.996   2.031   2.060   2.074   2.141   2.151   2.176
  2.182   2.194   2.229   2.246   2.261   2.271   2.311   2.329
  2.369   2.380   2.408   2.454   2.474   2.517   2.564   2.576
  2.591   2.629   2.676   2.714   2.730   2.782   2.833   2.861
  2.940   2.980   3.025   3.093   3.104   3.262   3.331   3.391
  3.450   3.496   3.544   4.441   4.503   4.585   4.638   4.663
  4.786   4.832   4.980   5.066
 --------------------------------------------------------------
 
          Ground-State Mulliken Net Atomic Charges

     Atom                 Charge (a.u.)
  ----------------------------------------
      1 C                     0.266948
      2 O                    -0.595360
      3 O                    -0.612124
      4 C                     0.345090
      5 C                    -0.615588
      6 O                    -0.422563
      7 C                    -0.125219
      8 O                    -0.671231
      9 C                    -0.663425
     10 H                     0.164506
     11 H                     0.223736
     12 H                     0.170835
     13 H                     0.187296
     14 H                     0.196782
     15 H                     0.150318
  ----------------------------------------
  Sum of atomic charges =    -2.000000

 -----------------------------------------------------------------
                    Cartesian Multipole Moments
 -----------------------------------------------------------------
    Charge (ESU x 10^10)
                -9.6064
    Dipole Moment (Debye)
         X      -0.4469      Y       2.1924      Z      -0.4408
       Tot       2.2805
    Quadrupole Moments (Debye-Ang)
        XX    -109.6205     XY      -8.7193     YY     -82.8251
        XZ       7.0000     YZ       3.6104     ZZ     -66.5600
    Octopole Moments (Debye-Ang^2)
       XXX      19.7956    XXY       8.6364    XYY       6.2593
       YYY     -17.6143    XXZ       7.8403    XYZ      -1.3894
       YYZ      -6.9234    XZZ      18.0170    YZZ      -8.4967
       ZZZ      10.1673
    Hexadecapole Moments (Debye-Ang^3)
      XXXX   -1316.2761   XXXY     -37.8516   XXYY    -303.0275
      XYYY     -16.0061   YYYY    -529.8082   XXXZ      80.3412
      XXYZ       8.6534   XYYZ      18.2135   YYYZ      20.0265
      XXZZ    -250.8436   XYZZ       9.3252   YYZZ    -144.9404
      XZZZ      24.7135   YZZZ      17.5140   ZZZZ    -347.5694
 -----------------------------------------------------------------
 Calculating analytic gradient of the SCF energy
 CPU 0.00 s  wall 0.00 s
 CPU 8.34 s  wall 8.34 s
 Gradient of SCF Energy
            1           2           3           4           5           6
    1  -0.0001245  -0.0004549   0.0000374  -0.0000272  -0.0008779  -0.0006767
    2  -0.0010866   0.0011268   0.0007935  -0.0023559  -0.0001261   0.0009153
    3   0.0015269  -0.0010388   0.0011180  -0.0012581  -0.0005385  -0.0020523
            7           8           9          10          11          12
    1   0.0036183  -0.0018124  -0.0014668   0.0004137  -0.0002011   0.0006171
    2   0.0024617  -0.0024458   0.0000321  -0.0003673   0.0004149  -0.0000286
    3   0.0028762   0.0009600  -0.0004038  -0.0004124  -0.0002280  -0.0003243
           13          14          15
    1  -0.0002690   0.0000889   0.0011349
    2   0.0000964  -0.0007025   0.0012722
    3   0.0006586  -0.0005784  -0.0003050
 Max gradient component =       3.618E-03
 RMS gradient           =       1.222E-03
 Gradient time:  CPU 65.16 s  wall 65.17 s
 Geometry Optimization Parameters
   NAtoms,    NIC,     NZ,  NCons,   NDum,   NFix, NCnnct, MaxDiis
       15      96       0       0       0       0       0       0

 Cartesian Hessian Update
 Hessian Updated using BFGS Update


** GEOMETRY OPTIMIZATION IN DELOCALIZED INTERNAL COORDINATES **
   Searching for a Minimum

   Optimization Cycle:   6

                       Coordinates (Angstroms)
     ATOM                X               Y               Z
      1  C         1.5480065791    0.2897033888   -0.1934121376
      2  O         1.4068190732    1.5468203311   -0.1283889378
      3  O         2.5849089621   -0.3439271624   -0.5255891087
      4  C         0.2775107077   -0.6129917971    0.1992230358
      5  C        -1.3545142956    0.4123869217   -1.4368998688
      6  O         0.4902737398   -1.7369682627    0.6248447015
      7  C        -1.2245008814   -0.0863079436    0.0609823167
      8  O        -2.1560369815   -1.0108063789    0.3546857313
      9  C        -1.3712508384    1.1783362923    0.9860920153
     10  H        -2.4266443429    1.4820788825    0.9171597202
     11  H        -0.7033278679    2.0032249272    0.7123578648
     12  H        -1.1707755154    0.8854219238    2.0274378261
     13  H        -1.5051742711   -0.4751771520   -2.0651184590
     14  H        -0.4893852579    0.9854335448   -1.7993038453
     15  H        -2.2515091453    1.0470076927   -1.5192122460
   Point Group: c1    Number of degrees of freedom:    39


   Energy is   -495.045298767

 Hessian Updated using BFGS Update

 39 Hessian modes will be used to form the next step
  Hessian Eigenvalues:
     0.001084    0.002009    0.003144    0.005057    0.008618    0.035626
     0.050504    0.052322    0.059335    0.062654    0.074975    0.077662
     0.103453    0.144559    0.160000    0.160017    0.160240    0.162802
     0.162989    0.184383    0.196626    0.239712    0.250869    0.251263
     0.253420    0.254086    0.259805    0.270648    0.275595    0.284383
     0.300802    0.308811    0.319897    0.340251    0.362774    0.524478
     0.632994    0.726588    0.818653

 Minimum Search - Taking Simple RFO Step
 Searching for Lamda that Minimizes Along All modes
 Value Taken    Lamda =  -0.00353533
 Calculated Step too Large.  Step scaled by  0.356272
 Step Taken.  Stepsize is  0.300000

                             Maximum     Tolerance    Cnvgd?
         Gradient           0.003058      0.000300      NO
         Displacement       0.211658      0.001200      NO
         Energy change     -0.001275      0.000001      NO


 New Cartesian Coordinates Obtained by Inverse Iteration

 Displacement from previous Coordinates is:  0.422344
 ----------------------------------------------------------------
             Standard Nuclear Orientation (Angstroms)
    I     Atom           X                Y                Z
 ----------------------------------------------------------------
    1      C       1.5472520591     0.2754651596    -0.2366141292
    2      O       1.4420712777     1.5353237913    -0.1621817974
    3      O       2.5482706389    -0.3860780609    -0.6211680794
    4      C       0.2761229017    -0.5963352346     0.2351711406
    5      C      -1.3345370343     0.4213966252    -1.4327916565
    6      O       0.4952209747    -1.6999416255     0.7124250808
    7      C      -1.2307508162    -0.0846966788     0.0640757800
    8      O      -2.1573835134    -1.0144294198     0.3389052817
    9      C      -1.3891832422     1.1765033229     0.9946843359
   10      H      -2.4393856057     1.4930589430     0.9076639276
   11      H      -0.6977775368     1.9914408518     0.7478300795
   12      H      -1.2196861514     0.8638690048     2.0363305967
   13      H      -1.4223454618    -0.4620662893    -2.0809341877
   14      H      -0.4950497035     1.0513973519    -1.7539149367
   15      H      -2.2684391221     0.9993274665    -1.5346228274
 ----------------------------------------------------------------
 Molecular Point Group                 C1    NOp =  1
 Largest Abelian Subgroup              C1    NOp =  1
 Nuclear Repulsion Energy =   445.4627486601 hartrees
 There are       35 alpha and       35 beta electrons
 Requested basis set is 6-31+G(d)
 There are 57 shells and 183 basis functions
 A cutoff of  1.0D-11 yielded   1543 shell pairs
 There are     16532 function pairs
 Smallest overlap matrix eigenvalue = 2.71E-05
 Placing solute cavity origin at the center of mass
[...]
 132. (0.00005) RY*(13) C  7             s( 17.10%)p 2.96( 50.65%)d 1.89( 32.26%)
 133. (0.00002) RY*(14) C  7             s( 70.15%)p 0.24( 17.08%)d 0.18( 12.78%)
 134. (0.00313) RY*( 1) O  8             s(  0.58%)p99.99( 98.54%)d 1.51(  0.88%)
                                         0.0000 -0.0027  0.0521  0.0554 -0.0004
                                         0.0087 -0.7610  0.1225 -0.0071  0.5582
                                        -0.1022  0.0004 -0.2630 -0.0059  0.0112
                                         0.0003  0.0399  0.0801 -0.0252
 135. (0.00250) RY*( 2) O  8             s(  0.20%)p99.99( 97.91%)d 9.56(  1.89%)
                                         0.0000 -0.0001  0.0422 -0.0098  0.0097
                                        -0.0004  0.1034 -0.0320  0.0047 -0.2922
                                         0.0216  0.0099 -0.9308  0.1230 -0.0026
                                         0.0699  0.1019 -0.0379 -0.0466
 136. (0.00036) RY*( 3) O  8             s( 72.86%)p 0.35( 25.18%)d 0.03(  1.96%)
                                         0.0000  0.0037  0.5900  0.6163 -0.0245
                                         0.0115  0.2413  0.2743  0.0069  0.1664
                                        -0.0648  0.0000  0.0238  0.2927  0.0491
                                        -0.0678  0.0016 -0.1024 -0.0457
 137. (0.00025) RY*( 4) O  8             s(  7.54%)p12.02( 90.58%)d 0.25(  1.88%)
                                         0.0000  0.0013  0.1799  0.2047  0.0333
                                         0.0075  0.0238 -0.6448  0.0029  0.2152
                                         0.6388 -0.0012 -0.0467 -0.1812  0.1100
                                        -0.0195  0.0341  0.0716  0.0043
 138. (0.00021) RY*( 5) O  8             s(  7.18%)p12.83( 92.13%)d 0.10(  0.69%)
                                         0.0000  0.0000  0.2030  0.1733 -0.0235
                                         0.0009  0.0531  0.0707  0.0009 -0.0769
                                        -0.2832  0.0023 -0.0861 -0.9055  0.0433
                                         0.0351  0.0289 -0.0393  0.0379
 139. (0.00013) RY*( 6) O  8             s( 21.29%)p 3.26( 69.45%)d 0.43(  9.26%)
                                         0.0000 -0.0055  0.1010  0.3221  0.3145
                                        -0.0113 -0.4969 -0.2389 -0.0199 -0.5900
                                        -0.0931  0.0054  0.1559  0.0941 -0.2156
                                        -0.0548  0.0936 -0.0989  0.1567
 140. (0.00009) RY*( 7) O  8             s( 20.20%)p 2.51( 50.73%)d 1.44( 29.06%)
 141. (0.00004) RY*( 8) O  8             s( 58.60%)p 0.19( 11.42%)d 0.51( 29.98%)
 142. (0.00001) RY*( 9) O  8             s( 82.61%)p 0.03(  2.81%)d 0.18( 14.58%)
 143. (0.00001) RY*(10) O  8             s( 23.41%)p 1.94( 45.35%)d 1.33( 31.24%)
 144. (0.00000) RY*(11) O  8             s(  1.53%)p 2.52(  3.85%)d61.97( 94.62%)
 145. (0.00001) RY*(12) O  8             s(  1.62%)p 1.83(  2.95%)d58.96( 95.43%)
 146. (0.00000) RY*(13) O  8             s(  1.72%)p 2.69(  4.61%)d54.56( 93.67%)
 147. (0.00001) RY*(14) O  8             s(  0.67%)p 7.31(  4.91%)d99.99( 94.42%)
 148. (0.01287) RY*( 1) C  9             s( 30.19%)p 2.29( 69.17%)d 0.02(  0.64%)
                                         0.0000  0.0045  0.5494 -0.0023  0.0004
                                         0.0010  0.4815 -0.0440 -0.0222 -0.3923
                                         0.2065 -0.0120 -0.5105 -0.0102  0.0500
                                         0.0016 -0.0076 -0.0270 -0.0557
 149. (0.00170) RY*( 2) C  9             s(  5.99%)p13.64( 81.77%)d 2.04( 12.23%)
                                         0.0000 -0.0013 -0.0225  0.2370  0.0571
                                        -0.0003  0.3622  0.2012 -0.0036  0.6798
                                         0.4134 -0.0045 -0.0995 -0.0559 -0.1422
                                        -0.1557 -0.0238  0.2126  0.1791
 150. (0.00147) RY*( 3) C  9             s( 22.27%)p 2.70( 60.06%)d 0.79( 17.68%)
                                         0.0000 -0.0093  0.2102  0.4220 -0.0170
                                         0.0049  0.2971 -0.0635 -0.0060 -0.1528
                                         0.0411  0.0101  0.6581  0.2237 -0.2098
                                        -0.0518 -0.0358  0.0056 -0.3588
 151. (0.00087) RY*( 4) C  9             s( 34.85%)p 1.83( 63.67%)d 0.04(  1.48%)
                                         0.0000 -0.0077  0.5484  0.1939 -0.1002
                                         0.0083 -0.4874 -0.4591  0.0012  0.2572
                                         0.0992  0.0042  0.0152 -0.3348 -0.0218
                                         0.0308  0.0613  0.0882 -0.0431
 152. (0.00039) RY*( 5) C  9             s( 10.66%)p 6.97( 74.29%)d 1.41( 15.05%)
                                         0.0000 -0.0127  0.1272  0.2406  0.1799
                                        -0.0062 -0.3546  0.1347 -0.0040  0.0947
                                         0.2059  0.0055 -0.1664  0.7210  0.3710
                                         0.0523 -0.0002 -0.0756 -0.0663
 153. (0.00025) RY*( 6) C  9             s( 43.58%)p 0.99( 43.18%)d 0.30( 13.24%)
                                         0.0000  0.0026 -0.4569  0.4678  0.0906
                                        -0.0160  0.1905 -0.5951  0.0024 -0.1145
                                         0.0690 -0.0006 -0.1226 -0.0909  0.3244
                                        -0.0137  0.0608 -0.0930  0.1208
 154. (0.00012) RY*( 7) C  9             s( 33.69%)p 1.70( 57.16%)d 0.27(  9.15%)
                                         0.0000  0.0121  0.1290  0.5633 -0.0526
                                        -0.0037 -0.0162  0.3876  0.0076  0.0125
                                        -0.6074  0.0047 -0.1809 -0.1384  0.0049
                                        -0.0849  0.2361 -0.0778  0.1499
 155. (0.00008) RY*( 8) C  9             s( 10.97%)p 3.34( 36.61%)d 4.78( 52.42%)
 156. (0.00007) RY*( 9) C  9             s(  4.45%)p14.19( 63.12%)d 7.29( 32.44%)
 157. (0.00003) RY*(10) C  9             s(  8.74%)p 3.37( 29.47%)d 7.07( 61.80%)
 158. (0.00001) RY*(11) C  9             s(  0.57%)p16.53(  9.35%)d99.99( 90.09%)
 159. (0.00001) RY*(12) C  9             s(  0.80%)p 5.50(  4.41%)d99.99( 94.79%)
 160. (0.00000) RY*(13) C  9             s( 89.22%)p 0.06(  4.98%)d 0.07(  5.80%)
 161. (0.00000) RY*(14) C  9             s(  4.06%)p 0.76(  3.07%)d22.90( 92.88%)
 162. (0.00294) RY*( 1) H 10             s(100.00%)
                                        -0.0044  1.0000
 163. (0.00180) RY*( 1) H 11             s(100.00%)
                                        -0.0042  1.0000
 164. (0.00132) RY*( 1) H 12             s(100.00%)
                                        -0.0019  1.0000
 165. (0.00117) RY*( 1) H 13             s(100.00%)
                                        -0.0017  1.0000
 166. (0.00148) RY*( 1) H 14             s(100.00%)
                                        -0.0035  1.0000
 167. (0.00233) RY*( 1) H 15             s(100.00%)
                                        -0.0032  1.0000
 168. (0.05847) BD*( 1) C  1- O  2       
               ( 65.49%)   0.8093* C  1 s( 34.02%)p 1.94( 65.82%)d 0.00(  0.16%)
                                         0.0001 -0.5818  0.0411 -0.0008 -0.0062
                                        -0.2560 -0.0336  0.0045 -0.7262 -0.0501
                                        -0.0022 -0.2483 -0.0042 -0.0058 -0.0142
                                        -0.0116 -0.0201  0.0264  0.0133
               ( 34.51%)  -0.5874* O  2 s( 37.52%)p 1.66( 62.22%)d 0.01(  0.25%)
                                         0.0000 -0.6124  0.0109  0.0089 -0.0033
                                         0.2468 -0.0026 -0.0017  0.6923 -0.0223
                                        -0.0008  0.2853 -0.0115  0.0012 -0.0222
                                        -0.0112 -0.0274  0.0305  0.0156
 169. (0.06614) BD*( 1) C  1- O  3       
               ( 65.74%)   0.8108* C  1 s( 33.47%)p 1.98( 66.37%)d 0.00(  0.16%)
                                        -0.0001  0.5770 -0.0412  0.0004  0.0057
                                         0.4502  0.0318 -0.0006 -0.4518 -0.0074
                                        -0.0076 -0.5034 -0.0491 -0.0009 -0.0230
                                        -0.0194  0.0250 -0.0035  0.0083
               ( 34.26%)  -0.5853* O  3 s( 36.64%)p 1.72( 63.10%)d 0.01(  0.26%)
                                         0.0000  0.6052 -0.0117 -0.0087  0.0031
                                        -0.2055  0.0055  0.0008  0.3104 -0.0143
                                         0.0009  0.7013 -0.0189 -0.0009 -0.0155
                                        -0.0235  0.0330 -0.0044  0.0256
 170. (0.38071) BD*( 2) C  1- O  3       
               ( 75.93%)   0.8714* C  1 s(  0.82%)p99.99( 98.85%)d 0.40(  0.33%)
                                         0.0001 -0.0902  0.0072  0.0062  0.0001
                                         0.5585 -0.0338  0.0091 -0.3740  0.0208
                                        -0.0081  0.7312 -0.0180  0.0022 -0.0252
                                        -0.0133 -0.0054 -0.0018 -0.0494
               ( 24.07%)  -0.4906* O  3 s(  1.13%)p86.99( 98.67%)d 0.17(  0.20%)
                                         0.0000 -0.1064  0.0035  0.0012 -0.0009
                                         0.6793 -0.0066  0.0011 -0.5085  0.0061
                                         0.0001  0.5163 -0.0017  0.0004  0.0251
                                         0.0142 -0.0071 -0.0014  0.0332
 171. (0.13156) BD*( 1) C  1- C  4       
               ( 51.96%)   0.7208* C  1 s( 31.97%)p 2.12( 67.93%)d 0.00(  0.09%)
                                        -0.0002 -0.5623 -0.0589  0.0042  0.0052
                                         0.6415 -0.0112 -0.0217  0.3503  0.0024
                                        -0.0100 -0.3799  0.0001  0.0098 -0.0153
                                         0.0157  0.0148 -0.0143  0.0057
               ( 48.04%)  -0.6931* C  4 s( 33.19%)p 2.01( 66.74%)d 0.00(  0.07%)
                                         0.0001 -0.5760  0.0100  0.0048  0.0060
                                        -0.6251  0.0122  0.0055 -0.3493  0.0101
                                         0.0041  0.3926 -0.0121 -0.0049 -0.0168
                                         0.0171  0.0083 -0.0092  0.0044
 172. (0.01266) BD*( 1) C  4- O  6       
               ( 66.79%)   0.8173* C  4 s( 30.56%)p 2.27( 69.28%)d 0.01(  0.16%)
                                        -0.0001  0.5450  0.0926  0.0044 -0.0035
                                         0.1664  0.0213 -0.0023 -0.6510 -0.0531
                                        -0.0027  0.4847  0.0565 -0.0008 -0.0122
                                         0.0100 -0.0312 -0.0181  0.0052
               ( 33.21%)  -0.5763* O  6 s( 41.88%)p 1.38( 57.82%)d 0.01(  0.30%)
                                         0.0001  0.6466 -0.0250 -0.0032 -0.0030
                                        -0.1559 -0.0008 -0.0023  0.3916 -0.0055
                                         0.0016 -0.6328  0.0096 -0.0015 -0.0122
                                         0.0147 -0.0435 -0.0172  0.0214
 173. (0.09272) BD*( 2) C  4- O  6       
               ( 70.34%)   0.8387* C  4 s(  0.55%)p99.99( 99.18%)d 0.49(  0.27%)
                                        -0.0001  0.0739  0.0065  0.0007  0.0001
                                         0.0504  0.0049  0.0009  0.6418 -0.0141
                                         0.0090  0.7595 -0.0051  0.0104  0.0072
                                         0.0122  0.0001  0.0230  0.0446
               ( 29.66%)  -0.5446* O  6 s(  0.88%)p99.99( 98.86%)d 0.29(  0.25%)
                                         0.0000  0.0939 -0.0020 -0.0015 -0.0006
                                         0.0057 -0.0012 -0.0010  0.8002 -0.0139
                                        -0.0027  0.5899 -0.0108 -0.0036 -0.0074
                                        -0.0050 -0.0096 -0.0283 -0.0395
 174. (0.13208) BD*( 1) C  4- C  7       
               ( 49.57%)   0.7041* C  4 s( 36.16%)p 1.76( 63.79%)d 0.00(  0.05%)
                                         0.0000 -0.6006  0.0276 -0.0008 -0.0071
                                         0.7594 -0.0070 -0.0100 -0.1843  0.0143
                                         0.0029  0.1638 -0.0038 -0.0009  0.0108
                                        -0.0079 -0.0011 -0.0157  0.0089
               ( 50.43%)  -0.7101* C  7 s( 22.13%)p 3.51( 77.78%)d 0.00(  0.09%)
                                        -0.0001 -0.4697  0.0244 -0.0055 -0.0039
                                        -0.8203  0.0187  0.0181  0.2763  0.0087
                                         0.0011 -0.1666 -0.0016  0.0010  0.0100
                                        -0.0087 -0.0001 -0.0239  0.0115
 175. (0.06698) BD*( 1) C  5- C  7       
               ( 48.29%)   0.6949* C  5 s( 27.52%)p 2.63( 72.43%)d 0.00(  0.05%)
                                        -0.0003 -0.5245  0.0069  0.0050  0.0020
                                        -0.0658  0.0150  0.0026  0.2761  0.0046
                                         0.0019 -0.8021  0.0117  0.0080  0.0022
                                        -0.0019  0.0118  0.0014 -0.0186
               ( 51.71%)  -0.7191* C  7 s( 25.62%)p 2.90( 74.31%)d 0.00(  0.07%)
                                         0.0001 -0.5061  0.0075  0.0056  0.0014
                                         0.0312  0.0095  0.0091 -0.2775  0.0168
                                         0.0049  0.8152  0.0059 -0.0092  0.0021
                                         0.0037  0.0167  0.0041 -0.0193
 176. (0.00683) BD*( 1) C  5- H 13       
               ( 38.54%)   0.6208* C  5 s( 24.33%)p 3.11( 75.58%)d 0.00(  0.09%)
                                         0.0000 -0.4932 -0.0030 -0.0039 -0.0010
                                        -0.1569 -0.0018  0.0026  0.6478  0.0006
                                        -0.0033  0.5581  0.0020  0.0072  0.0069
                                         0.0058 -0.0252  0.0126 -0.0045
               ( 61.46%)  -0.7840* H 13 s(100.00%)
                                        -1.0000 -0.0017
 177. (0.01405) BD*( 1) C  5- H 14       
               ( 39.09%)   0.6252* C  5 s( 24.59%)p 3.06( 75.31%)d 0.00(  0.10%)
                                         0.0001 -0.4959 -0.0051  0.0005 -0.0004
                                        -0.5640 -0.0090  0.0041 -0.6423 -0.0050
                                        -0.0014  0.1491  0.0060  0.0098 -0.0255
                                         0.0065  0.0076  0.0040  0.0142
               ( 60.91%)  -0.7805* H 14 s(100.00%)
                                        -1.0000 -0.0035
 178. (0.01029) BD*( 1) C  5- H 15       
               ( 39.97%)   0.6322* C  5 s( 23.53%)p 3.25( 76.38%)d 0.00(  0.09%)
                                        -0.0001  0.4850  0.0074  0.0008  0.0005
                                        -0.8072 -0.0038 -0.0009  0.3005 -0.0040
                                         0.0017 -0.1475 -0.0030 -0.0099 -0.0173
                                         0.0085 -0.0035  0.0192 -0.0137
               ( 60.03%)  -0.7748* H 15 s(100.00%)
                                         1.0000  0.0032
 179. (0.01593) BD*( 1) C  7- O  8       
               ( 61.73%)   0.7857* C  7 s( 28.48%)p 2.51( 71.40%)d 0.00(  0.12%)
                                         0.0000  0.5313  0.0498  0.0043  0.0012
                                        -0.5439 -0.0278 -0.0157 -0.6300 -0.0337
                                        -0.0215  0.1368  0.0045  0.0020  0.0290
                                        -0.0068 -0.0067 -0.0030 -0.0159
               ( 38.27%)  -0.6186* O  8 s( 32.87%)p 2.04( 66.92%)d 0.01(  0.21%)
                                         0.0001  0.5731 -0.0152  0.0064 -0.0005
                                         0.5571 -0.0247 -0.0068  0.5864 -0.0289
                                        -0.0094 -0.1155  0.0068  0.0020  0.0388
                                        -0.0079 -0.0084 -0.0034 -0.0213
 180. (0.07383) BD*( 1) C  7- C  9       
               ( 51.92%)   0.7206* C  7 s( 23.75%)p 3.21( 76.18%)d 0.00(  0.07%)
                                        -0.0001  0.4872 -0.0102 -0.0045 -0.0026
                                        -0.1631 -0.0152 -0.0039  0.6686 -0.0076
                                        -0.0110  0.5364  0.0087 -0.0074 -0.0033
                                         0.0012  0.0210 -0.0155  0.0003
               ( 48.08%)  -0.6934* C  9 s( 27.25%)p 2.67( 72.71%)d 0.00(  0.05%)
                                         0.0005  0.5219 -0.0100  0.0056 -0.0020
                                         0.1742 -0.0182 -0.0033 -0.6472  0.0053
                                         0.0019 -0.5265  0.0137  0.0078 -0.0067
                                        -0.0033  0.0176 -0.0097  0.0015
 181. (0.01289) BD*( 1) C  9- H 10       
               ( 40.02%)   0.6326* C  9 s( 23.49%)p 3.25( 76.41%)d 0.00(  0.09%)
                                        -0.0001  0.4846  0.0111 -0.0008  0.0004
                                        -0.8034 -0.0066 -0.0024  0.3047 -0.0013
                                         0.0067 -0.1602  0.0016  0.0076 -0.0175
                                         0.0086 -0.0031  0.0186 -0.0138
               ( 59.98%)  -0.7745* H 10 s(100.00%)
                                         1.0000  0.0044
 182. (0.01471) BD*( 1) C  9- H 11       
               ( 38.72%)   0.6223* C  9 s( 24.98%)p 3.00( 74.93%)d 0.00(  0.10%)
                                         0.0001 -0.4997 -0.0075  0.0012 -0.0008
                                        -0.5674 -0.0122  0.0037 -0.6443 -0.0064
                                        -0.0051  0.1097 -0.0014 -0.0067 -0.0262
                                         0.0035  0.0049  0.0039  0.0151
               ( 61.28%)  -0.7828* H 11 s(100.00%)
                                        -1.0000 -0.0042
 183. (0.00707) BD*( 1) C  9- H 12       
               ( 38.82%)   0.6231* C  9 s( 24.26%)p 3.12( 75.64%)d 0.00(  0.09%)
                                         0.0000 -0.4926 -0.0048  0.0038 -0.0008
                                        -0.0304  0.0003  0.0036  0.2677  0.0023
                                        -0.0067 -0.8269 -0.0037 -0.0036  0.0007
                                        -0.0015  0.0146  0.0018 -0.0264
               ( 61.18%)  -0.7822* H 12 s(100.00%)
                                        -1.0000 -0.0019
 SVNBO: NDIM =          183
 NBO state            0

 *******************************************************************************
Archival summary:
1\1\bt2600-16\OPT\ProcedureUnspecified\6-31+G*\456(2-,1)\emavera\WedApr2614:29:252017WedApr2614:29:252017\0\\#,OPT,ProcedureUnspecified,6-31+G*,\\-2,1\C\O,1,1.22951\C,1,1.55682,2,118.229\O,3,1.26292,1,116.246,2,-83.7987,0\O,3,1.26632,1,115.612,2,95.3448,0\C,1,1.59823,2,120.806,3,177.59,0\O,6,1.34109,1,114.48,2,31.2042,0\C,6,1.56968,1,108.075,2,156.804,0\H,8,1.09719,6,109.222,1,-68.4547,0\H,8,1.10064,6,114.112,1,53.2311,0\H,8,1.10095,6,107.288,1,174.407,0\C,6,1.58373,1,103.063,2,-90.4931,0\H,12,1.09799,6,108.179,1,66.0294,0\H,12,1.10034,6,113.764,1,-55.5435,0\H,12,1.10214,6,107.208,1,-177.422,0\\\@

 Total job time:  4359.98s(wall), 4361.43s(cpu) 
 Wed Apr 26 14:29:25 2017

        *************************************************************
        *                                                           *
        *  Thank you very much for using Q-Chem.  Have a nice day.  *
        *                                                           *
        *************************************************************


0 sent ACK to 0 
now end server 0 ... 
cleanup process ... done
