Jobname.Temp
SP        R                             6-31+G(d)           
Number of atoms                            I               15
Charge                                     I               -2
Multiplicity                               I                1
Number of electrons                        I               70
Number of alpha electrons                  I               35
Number of beta electrons                   I               35
Atomic numbers                             I   N=          15
           6           8           8           6           6           8
           6           8           6           1           1           1
           1           1           1
Current cartesian coordinates              R   N=          45
 -2.98111795E+00  1.94379941E-01 -7.31735349E-02 -3.58401766E+00  9.18966780E-01
 -2.27170051E+00 -4.18498826E+00  5.11059743E-01  1.96267435E+00 -4.58061971E-01
 -1.30253514E+00  1.27003701E-01  1.71968537E+00  2.83591954E+00  1.38214312E+00
 -5.53626792E-01 -3.62426777E+00  9.26238070E-02  2.19368893E+00  1.36444411E-01
  2.57706736E-01  4.00340987E+00 -1.11407801E+00  1.51549097E+00  2.89992010E+00
  5.15178653E-01 -2.62345396E+00  4.68592259E+00  1.58475368E+00 -2.68376600E+00
  1.43947552E+00  1.50576344E+00 -3.72149922E+00  3.23259841E+00 -1.35502119E+00
 -3.46094350E+00  1.17852802E+00  2.66143832E+00  3.37449186E+00  2.49642348E-01
  3.92306279E+00  3.92148966E-01  3.52292897E+00  3.87023256E+00  1.28550261E+00
Nuclear charges                            R   N=          15
  6.00000000E+00  8.00000000E+00  8.00000000E+00  6.00000000E+00  6.00000000E+00
  8.00000000E+00  6.00000000E+00  8.00000000E+00  6.00000000E+00  1.00000000E+00
  1.00000000E+00  1.00000000E+00  1.00000000E+00  1.00000000E+00  1.00000000E+00
Number of basis functions                  I              183
Number of contracted shells                I               57
Number of primitive shells                 I              132
Highest angular momentum                   I                2
Largest degree of contraction              I                6
Shell types                                I   N=          57
           0          -1          -1          -1           2           0
          -1          -1          -1           2           0          -1
          -1          -1           2           0          -1          -1
          -1           2           0          -1          -1          -1
           2           0          -1          -1          -1           2
           0          -1          -1          -1           2           0
          -1          -1          -1           2           0          -1
          -1          -1           2           0           0           0
           0           0           0           0           0           0
           0           0           0
Number of primitives per shell             I   N=          57
           6           3           1           1           1           6
           3           1           1           1           6           3
           1           1           1           6           3           1
           1           1           6           3           1           1
           1           6           3           1           1           1
           6           3           1           1           1           6
           3           1           1           1           6           3
           1           1           1           3           1           3
           1           3           1           3           1           3
           1           3           1
Shell to atom map                          I   N=          57
           1           1           1           1           1           2
           2           2           2           2           3           3
           3           3           3           4           4           4
           4           4           5           5           5           5
           5           6           6           6           6           6
           7           7           7           7           7           8
           8           8           8           8           9           9
           9           9           9          10          10          11
          11          12          12          13          13          14
          14          15          15
Primitive exponents                        R   N=         132
  3.04752490E+03  4.57369510E+02  1.03948690E+02  2.92101550E+01  9.28666300E+00
  3.16392700E+00  7.86827240E+00  1.88128850E+00  5.44249300E-01  1.68714400E-01
  4.38000000E-02  8.00000000E-01  5.48467170E+03  8.25234950E+02  1.88046960E+02
  5.29645000E+01  1.68975700E+01  5.79963530E+00  1.55396160E+01  3.59993360E+00
  1.01376180E+00  2.70005800E-01  8.45000000E-02  8.00000000E-01  5.48467170E+03
  8.25234950E+02  1.88046960E+02  5.29645000E+01  1.68975700E+01  5.79963530E+00
  1.55396160E+01  3.59993360E+00  1.01376180E+00  2.70005800E-01  8.45000000E-02
  8.00000000E-01  3.04752490E+03  4.57369510E+02  1.03948690E+02  2.92101550E+01
  9.28666300E+00  3.16392700E+00  7.86827240E+00  1.88128850E+00  5.44249300E-01
  1.68714400E-01  4.38000000E-02  8.00000000E-01  3.04752490E+03  4.57369510E+02
  1.03948690E+02  2.92101550E+01  9.28666300E+00  3.16392700E+00  7.86827240E+00
  1.88128850E+00  5.44249300E-01  1.68714400E-01  4.38000000E-02  8.00000000E-01
  5.48467170E+03  8.25234950E+02  1.88046960E+02  5.29645000E+01  1.68975700E+01
  5.79963530E+00  1.55396160E+01  3.59993360E+00  1.01376180E+00  2.70005800E-01
  8.45000000E-02  8.00000000E-01  3.04752490E+03  4.57369510E+02  1.03948690E+02
  2.92101550E+01  9.28666300E+00  3.16392700E+00  7.86827240E+00  1.88128850E+00
  5.44249300E-01  1.68714400E-01  4.38000000E-02  8.00000000E-01  5.48467170E+03
  8.25234950E+02  1.88046960E+02  5.29645000E+01  1.68975700E+01  5.79963530E+00
  1.55396160E+01  3.59993360E+00  1.01376180E+00  2.70005800E-01  8.45000000E-02
  8.00000000E-01  3.04752490E+03  4.57369510E+02  1.03948690E+02  2.92101550E+01
  9.28666300E+00  3.16392700E+00  7.86827240E+00  1.88128850E+00  5.44249300E-01
  1.68714400E-01  4.38000000E-02  8.00000000E-01  1.87311370E+01  2.82539370E+00
  6.40121700E-01  1.61277800E-01  1.87311370E+01  2.82539370E+00  6.40121700E-01
  1.61277800E-01  1.87311370E+01  2.82539370E+00  6.40121700E-01  1.61277800E-01
  1.87311370E+01  2.82539370E+00  6.40121700E-01  1.61277800E-01  1.87311370E+01
  2.82539370E+00  6.40121700E-01  1.61277800E-01  1.87311370E+01  2.82539370E+00
  6.40121700E-01  1.61277800E-01
Contraction coefficients                   R   N=         132
  3.17779390E-03  2.43133190E-02  1.19238892E-01  4.02155213E-01  8.10498179E-01
  6.27542848E-01 -1.19332409E-01 -1.60854212E-01  1.14345648E+00  1.00000000E+00
  1.00000000E+00  1.00000000E+00  3.17155790E-03  2.41622794E-02  1.18550378E-01
  4.03072948E-01  8.14398079E-01  6.20976348E-01 -1.10777504E-01 -1.48026305E-01
  1.13076704E+00  1.00000000E+00  1.00000000E+00  1.00000000E+00  3.17155790E-03
  2.41622794E-02  1.18550378E-01  4.03072948E-01  8.14398079E-01  6.20976348E-01
 -1.10777504E-01 -1.48026305E-01  1.13076704E+00  1.00000000E+00  1.00000000E+00
  1.00000000E+00  3.17779390E-03  2.43133190E-02  1.19238892E-01  4.02155213E-01
  8.10498179E-01  6.27542848E-01 -1.19332409E-01 -1.60854212E-01  1.14345648E+00
  1.00000000E+00  1.00000000E+00  1.00000000E+00  3.17779390E-03  2.43133190E-02
  1.19238892E-01  4.02155213E-01  8.10498179E-01  6.27542848E-01 -1.19332409E-01
 -1.60854212E-01  1.14345648E+00  1.00000000E+00  1.00000000E+00  1.00000000E+00
  3.17155790E-03  2.41622794E-02  1.18550378E-01  4.03072948E-01  8.14398079E-01
  6.20976348E-01 -1.10777504E-01 -1.48026305E-01  1.13076704E+00  1.00000000E+00
  1.00000000E+00  1.00000000E+00  3.17779390E-03  2.43133190E-02  1.19238892E-01
  4.02155213E-01  8.10498179E-01  6.27542848E-01 -1.19332409E-01 -1.60854212E-01
  1.14345648E+00  1.00000000E+00  1.00000000E+00  1.00000000E+00  3.17155790E-03
  2.41622794E-02  1.18550378E-01  4.03072948E-01  8.14398079E-01  6.20976348E-01
 -1.10777504E-01 -1.48026305E-01  1.13076704E+00  1.00000000E+00  1.00000000E+00
  1.00000000E+00  3.17779390E-03  2.43133190E-02  1.19238892E-01  4.02155213E-01
  8.10498179E-01  6.27542848E-01 -1.19332409E-01 -1.60854212E-01  1.14345648E+00
  1.00000000E+00  1.00000000E+00  1.00000000E+00  5.80143482E-02  4.06558998E-01
  1.40946902E+00  1.73205081E+00  5.80143482E-02  4.06558998E-01  1.40946902E+00
  1.73205081E+00  5.80143482E-02  4.06558998E-01  1.40946902E+00  1.73205081E+00
  5.80143482E-02  4.06558998E-01  1.40946902E+00  1.73205081E+00  5.80143482E-02
  4.06558998E-01  1.40946902E+00  1.73205081E+00  5.80143482E-02  4.06558998E-01
  1.40946902E+00  1.73205081E+00
P(S=P) Contraction coefficients            R   N=         132
  0.00000000E+00  0.00000000E+00  0.00000000E+00  0.00000000E+00  0.00000000E+00
  0.00000000E+00  1.19509939E-01  5.48062410E-01  1.28917971E+00  1.73205081E+00
  1.73205081E+00  0.00000000E+00  0.00000000E+00  0.00000000E+00  0.00000000E+00
  0.00000000E+00  0.00000000E+00  0.00000000E+00  1.22757888E-01  5.88469108E-01
  1.25947563E+00  1.73205081E+00  1.73205081E+00  0.00000000E+00  0.00000000E+00
  0.00000000E+00  0.00000000E+00  0.00000000E+00  0.00000000E+00  0.00000000E+00
  1.22757888E-01  5.88469108E-01  1.25947563E+00  1.73205081E+00  1.73205081E+00
  0.00000000E+00  0.00000000E+00  0.00000000E+00  0.00000000E+00  0.00000000E+00
  0.00000000E+00  0.00000000E+00  1.19509939E-01  5.48062410E-01  1.28917971E+00
  1.73205081E+00  1.73205081E+00  0.00000000E+00  0.00000000E+00  0.00000000E+00
  0.00000000E+00  0.00000000E+00  0.00000000E+00  0.00000000E+00  1.19509939E-01
  5.48062410E-01  1.28917971E+00  1.73205081E+00  1.73205081E+00  0.00000000E+00
  0.00000000E+00  0.00000000E+00  0.00000000E+00  0.00000000E+00  0.00000000E+00
  0.00000000E+00  1.22757888E-01  5.88469108E-01  1.25947563E+00  1.73205081E+00
  1.73205081E+00  0.00000000E+00  0.00000000E+00  0.00000000E+00  0.00000000E+00
  0.00000000E+00  0.00000000E+00  0.00000000E+00  1.19509939E-01  5.48062410E-01
  1.28917971E+00  1.73205081E+00  1.73205081E+00  0.00000000E+00  0.00000000E+00
  0.00000000E+00  0.00000000E+00  0.00000000E+00  0.00000000E+00  0.00000000E+00
  1.22757888E-01  5.88469108E-01  1.25947563E+00  1.73205081E+00  1.73205081E+00
  0.00000000E+00  0.00000000E+00  0.00000000E+00  0.00000000E+00  0.00000000E+00
  0.00000000E+00  0.00000000E+00  1.19509939E-01  5.48062410E-01  1.28917971E+00
  1.73205081E+00  1.73205081E+00  0.00000000E+00  0.00000000E+00  0.00000000E+00
  0.00000000E+00  0.00000000E+00  0.00000000E+00  0.00000000E+00  0.00000000E+00
  0.00000000E+00  0.00000000E+00  0.00000000E+00  0.00000000E+00  0.00000000E+00
  0.00000000E+00  0.00000000E+00  0.00000000E+00  0.00000000E+00  0.00000000E+00
  0.00000000E+00  0.00000000E+00  0.00000000E+00  0.00000000E+00  0.00000000E+00
  0.00000000E+00  0.00000000E+00
Coordinates of each shell                  R   N=         171
 -2.98111795E+00  1.94379941E-01 -7.31735349E-02 -2.98111795E+00  1.94379941E-01
 -7.31735349E-02 -2.98111795E+00  1.94379941E-01 -7.31735349E-02 -2.98111795E+00
  1.94379941E-01 -7.31735349E-02 -2.98111795E+00  1.94379941E-01 -7.31735349E-02
 -3.58401766E+00  9.18966780E-01 -2.27170051E+00 -3.58401766E+00  9.18966780E-01
 -2.27170051E+00 -3.58401766E+00  9.18966780E-01 -2.27170051E+00 -3.58401766E+00
  9.18966780E-01 -2.27170051E+00 -3.58401766E+00  9.18966780E-01 -2.27170051E+00
 -4.18498826E+00  5.11059743E-01  1.96267435E+00 -4.18498826E+00  5.11059743E-01
  1.96267435E+00 -4.18498826E+00  5.11059743E-01  1.96267435E+00 -4.18498826E+00
  5.11059743E-01  1.96267435E+00 -4.18498826E+00  5.11059743E-01  1.96267435E+00
 -4.58061971E-01 -1.30253514E+00  1.27003701E-01 -4.58061971E-01 -1.30253514E+00
  1.27003701E-01 -4.58061971E-01 -1.30253514E+00  1.27003701E-01 -4.58061971E-01
 -1.30253514E+00  1.27003701E-01 -4.58061971E-01 -1.30253514E+00  1.27003701E-01
  1.71968537E+00  2.83591954E+00  1.38214312E+00  1.71968537E+00  2.83591954E+00
  1.38214312E+00  1.71968537E+00  2.83591954E+00  1.38214312E+00  1.71968537E+00
  2.83591954E+00  1.38214312E+00  1.71968537E+00  2.83591954E+00  1.38214312E+00
 -5.53626792E-01 -3.62426777E+00  9.26238070E-02 -5.53626792E-01 -3.62426777E+00
  9.26238070E-02 -5.53626792E-01 -3.62426777E+00  9.26238070E-02 -5.53626792E-01
 -3.62426777E+00  9.26238070E-02 -5.53626792E-01 -3.62426777E+00  9.26238070E-02
  2.19368893E+00  1.36444411E-01  2.57706736E-01  2.19368893E+00  1.36444411E-01
  2.57706736E-01  2.19368893E+00  1.36444411E-01  2.57706736E-01  2.19368893E+00
  1.36444411E-01  2.57706736E-01  2.19368893E+00  1.36444411E-01  2.57706736E-01
  4.00340987E+00 -1.11407801E+00  1.51549097E+00  4.00340987E+00 -1.11407801E+00
  1.51549097E+00  4.00340987E+00 -1.11407801E+00  1.51549097E+00  4.00340987E+00
 -1.11407801E+00  1.51549097E+00  4.00340987E+00 -1.11407801E+00  1.51549097E+00
  2.89992010E+00  5.15178653E-01 -2.62345396E+00  2.89992010E+00  5.15178653E-01
 -2.62345396E+00  2.89992010E+00  5.15178653E-01 -2.62345396E+00  2.89992010E+00
  5.15178653E-01 -2.62345396E+00  2.89992010E+00  5.15178653E-01 -2.62345396E+00
  4.68592259E+00  1.58475368E+00 -2.68376600E+00  4.68592259E+00  1.58475368E+00
 -2.68376600E+00  1.43947552E+00  1.50576344E+00 -3.72149922E+00  1.43947552E+00
  1.50576344E+00 -3.72149922E+00  3.23259841E+00 -1.35502119E+00 -3.46094350E+00
  3.23259841E+00 -1.35502119E+00 -3.46094350E+00  1.17852802E+00  2.66143832E+00
  3.37449186E+00  1.17852802E+00  2.66143832E+00  3.37449186E+00  2.49642348E-01
  3.92306279E+00  3.92148966E-01  2.49642348E-01  3.92306279E+00  3.92148966E-01
  3.52292897E+00  3.87023256E+00  1.28550261E+00  3.52292897E+00  3.87023256E+00
  1.28550261E+00
SCF Energy                                 R     -4.950533288904328E+02
Number of independent functions            I              183
Alpha MO coefficients                      R   N=       33489
  5.86560019E-06  9.71390694E-05  1.32101706E-06  2.36421794E-05  4.60168009E-06
 -4.45155819E-04 -2.55045124E-04 -1.53347717E-04 -5.35127620E-05 -2.20490520E-03
 -2.58074639E-04  7.13656153E-04 -4.31198709E-07 -1.13177385E-05 -4.91890428E-05
 -1.77620820E-05  3.59176700E-05 -8.18803921E-07  8.95136230E-06 -1.65236361E-05
 -1.51542199E-05  1.41236754E-06  8.03278763E-06  3.21015381E-06  6.38696676E-05
  3.06563154E-05 -1.96660907E-05  2.45735853E-05 -1.55704404E-04 -5.25803385E-05
  5.20539340E-05 -2.40204213E-05 -2.34580425E-05  1.75553824E-05  4.47642722E-07
 -1.65448436E-05  1.27657693E-05  4.27522280E-06 -2.19135722E-05  3.19810985E-06
 -4.78987528E-06  1.80991231E-06 -3.68198992E-06 -6.97115081E-05  6.83819193E-05
 -3.31072381E-06 -1.72346270E-06  3.30967945E-04  3.02940722E-05 -5.49742647E-05
 -1.36794864E-04  8.75885811E-06  3.50097505E-05 -5.33309917E-08 -1.99646964E-05
 -1.88613602E-05 -3.65772476E-06 -8.57179854E-06  3.97563653E-04 -1.17554847E-05
 -2.95522564E-04 -6.19026675E-06 -2.49316913E-04 -8.28490022E-05  1.12524604E-03
  4.20508923E-07  7.18522903E-03  1.19638954E-05 -1.80181966E-03 -3.35940177E-04
 -1.29064109E-04 -3.82330892E-04 -1.50137744E-04 -1.74167454E-05 -9.41196058E-07
 -3.93445043E-06  1.26293844E-05  6.59871895E-05 -1.14575639E-05 -1.77582201E-05
 -5.65535627E-06 -2.41982200E-04  1.38088433E-04  1.93187259E-04  1.53910401E-05
  7.82496103E-04 -5.78643071E-05 -2.89318668E-04  3.30560263E-04  1.55938477E-05
 -5.81968585E-09  1.97399774E-05 -1.14330451E-05 -1.01741456E-05  1.01150131E-06
  9.92555100E-01  2.50982168E-02  6.97635016E-06  1.15496555E-03  2.09624119E-06
  1.61658922E-02  8.14171924E-05 -2.50279226E-04 -8.44426751E-06 -7.99178470E-03
 -2.83200872E-04 -1.72143340E-04  9.76689111E-05 -8.67886022E-03 -8.62038664E-03
 -8.69798048E-03  5.05354448E-06  1.90597728E-06  1.59020872E-06  9.79163248E-06
  6.44059294E-05  6.66812498E-06  2.05366783E-06  2.58059085E-06 -1.93065782E-04
  1.79459471E-04 -9.53139668E-05  6.15846335E-05  4.94433437E-03  6.28455927E-04
  1.70741417E-04 -3.11634130E-03  2.53211362E-05 -2.07139255E-05  2.62729718E-05
 -2.56565781E-05  3.33079617E-06  5.36159964E-06  7.33565381E-07  3.96048714E-05
 -7.37931248E-06  8.14051412E-06  1.74190463E-06 -3.03606329E-04 -7.19307418E-06
 -1.25826834E-04 -3.08223969E-06  3.80003804E-06 -1.63856047E-04  1.03340117E-04
  1.54422824E-04  6.07558097E-05  4.34148428E-05  2.92023429E-05  3.40943209E-05
  1.39793909E-06  1.89705409E-05  4.40617533E-07 -9.08152042E-06 -1.40993511E-05
  1.07832138E-06  1.74324031E-05 -9.86871632E-05  2.10938732E-05  1.26067637E-05
 -8.97779224E-05 -7.03970378E-03  6.86426341E-04  8.20474128E-04 -1.54116435E-03
 -5.30018624E-06  2.89240205E-05 -8.27653531E-06  1.80711872E-05 -8.12001666E-06
 -6.80832941E-06  4.65521782E-06 -4.77324612E-05 -4.04980078E-06 -4.10457851E-05
 -4.26136930E-05  1.58522296E-04  2.43715510E-05 -2.80264726E-05  1.21538654E-05
 -5.48343174E-06  7.00196858E-06 -1.93800402E-04 -2.99518722E-05  3.24743456E-04
 -7.91147620E-05  1.09599741E-04 -3.51648472E-04  5.88783284E-04 -1.21933460E-04
 -4.58279513E-05  6.84221003E-04  1.39661588E-02  3.44228024E-03 -5.86628490E-04
 -2.26122850E-03 -1.25325509E-04 -1.67771805E-04 -2.10613596E-04 -2.05920827E-05
 -6.72456863E-06  1.43223890E-05  9.92553355E-01  2.50993218E-02  2.33351726E-04
 -3.10915004E-04  9.64984167E-04  1.59040920E-02  5.94324323E-05  1.31355638E-04
 -5.31279065E-04 -9.46444368E-03 -8.88266475E-04  1.19889603E-04 -3.22666822E-04
 -8.66419755E-03 -8.66562255E-03 -8.73164763E-03 -9.53819291E-06 -8.05303632E-06
  1.69340108E-05 -2.95985079E-03 -2.66515785E-05 -1.39255035E-07 -9.35479483E-06
 -1.68066987E-05 -1.74169163E-04  3.51231820E-05  2.19455692E-05  1.08541354E-04
 -1.33520757E-03 -7.71787651E-04  6.91011686E-05  1.22206178E-04  8.31905626E-05
  4.88264534E-05 -6.57301010E-05 -2.49350085E-05 -3.02776306E-05  3.74130523E-05
  7.27386920E-07  6.55501679E-05  1.17752009E-05  3.04115255E-05  2.41107191E-05
 -7.04921176E-05 -1.50836177E-04 -2.15864823E-04 -2.22287827E-04 -2.79438795E-03
  3.03200613E-03  7.04366036E-04  1.68092955E-03 -3.45365528E-05 -1.95311843E-05
 -2.54347857E-05  1.94554755E-05 -3.21889401E-05  3.29983545E-05 -1.01818751E-06
  9.25849691E-06 -2.67322105E-06  2.33845566E-06  2.19384813E-05 -2.48880201E-04
  1.05974777E-04  1.09145143E-04 -6.88361395E-06 -2.82028167E-04  1.03061080E-03
 -8.90047856E-05  5.89677232E-04  2.29711126E-06 -1.38205131E-05 -1.82188747E-05
  5.17800668E-07  4.75205324E-06  2.38450515E-06  8.32464035E-06 -3.36068145E-05
 -8.67212657E-07 -1.40343655E-05 -2.37227267E-06  6.22728771E-05  2.53448209E-05
  6.10795743E-05  5.48119828E-05 -6.63137689E-04 -2.72569351E-05 -4.32338726E-04
 -1.13950188E-04 -1.80170399E-05 -8.23157808E-06 -2.58809263E-05 -1.71513698E-06
  2.72740114E-05  2.03296242E-06 -1.20369419E-05 -4.60752357E-05 -2.81053036E-06
 -9.86907940E-06 -3.56430360E-06  8.07864015E-05 -3.07406232E-04  2.14313279E-04
  9.33176749E-06 -6.75977432E-03  3.18049636E-04 -2.92729808E-04 -1.41303984E-03
 -1.56205226E-05 -2.12510057E-05 -2.82965565E-05  1.63979033E-05 -1.12021742E-05
  7.82646154E-06 -6.92164673E-06 -1.93440426E-05  1.30172382E-05  1.78767511E-07
  1.54508785E-05  1.03650627E-04 -1.18854419E-04  3.55524184E-05 -1.35880510E-04
  8.85698372E-04  8.94247781E-05  1.64837342E-04  2.08441139E-04  1.17377195E-06
 -3.87223719E-06 -5.87025073E-06 -4.52178288E-06  1.83358774E-05 -7.50747888E-06
 -5.16924611E-07  1.95346184E-06  1.61132149E-05  4.30669261E-06 -8.13003574E-06
 -1.28163177E-04  5.69943434E-05 -1.35790911E-04  8.91990168E-05  4.43884121E-04
  1.28621108E-04  1.01995208E-06  4.42603274E-04 -4.83917785E-07 -1.05316690E-05
 -1.37889952E-06  3.47299458E-06 -8.78145027E-07 -2.61950368E-06 -1.21869408E-06
  1.04897636E-04  2.81670935E-05  1.16443443E-04  1.20124805E-05 -1.57098918E-04
  9.51508178E-06  1.08981730E-04  4.48919972E-06  6.19749165E-05 -2.22203488E-05
  1.46947360E-04 -2.26350601E-05  3.61085654E-04 -1.67362942E-04  4.49440149E-05
  3.26834191E-04  3.02634854E-04 -5.01076010E-05  9.79894539E-05 -8.11451799E-04
  1.39956558E-02  2.59563694E-03 -1.20186680E-03  3.22931398E-03 -1.41066741E-04
 -1.46041631E-04 -2.15915660E-04 -1.68754722E-05  4.16093843E-05 -9.42355265E-06
  2.96447200E-03  1.22271938E-04 -5.13847318E-06 -1.62488802E-05  1.97619088E-05
 -8.00415458E-05  8.50843640E-05  5.38728497E-05 -9.21338560E-05 -1.45587825E-03
 -7.87635842E-04  1.22528296E-04 -3.83010126E-04  5.49379768E-06  7.65441341E-06
 -1.03182983E-04 -2.69094667E-05  7.37913764E-05 -1.82795377E-05  9.92554958E-01
  2.51056931E-02  5.02711355E-04 -1.30460471E-04 -9.15417323E-04  1.59088018E-02
 -7.07057674E-05  1.18425554E-05  5.08248398E-04 -9.20844622E-03 -7.68358511E-04
  1.00633527E-04  5.52372706E-05 -8.66065283E-03 -8.65870041E-03 -8.71816690E-03
 -1.05217629E-05  1.57232386E-05 -3.00055739E-06 -2.89152704E-06  4.47850396E-05
  1.36847379E-05  2.92055805E-05 -1.32819101E-05  1.18168110E-04 -2.10336488E-04
  3.16494005E-05  2.09427194E-04 -2.62662062E-03  3.68891859E-03  1.03708076E-03
 -1.18759959E-03 -5.40569335E-05 -8.18528324E-06 -2.02219465E-05  1.74490269E-05
  3.56887927E-05 -1.75992214E-05 -1.81585081E-05 -7.99599770E-05  1.67494183E-05
 -5.60455723E-06  2.12831518E-07  3.81629439E-04 -9.00039781E-05 -8.10239273E-05
 -4.35444448E-05 -5.92707332E-04  9.53982881E-04  6.48206256E-05 -1.24066249E-04
 -1.55424438E-05 -2.44437737E-05 -3.25460731E-05  5.03033069E-06 -3.08393111E-06
 -3.98775086E-06  2.18711271E-05 -2.94706992E-05  3.02108927E-06 -1.58507754E-05
  5.58352682E-06  7.08329640E-05  3.85452339E-06  9.02988683E-05 -6.02126412E-05
 -4.16056674E-04 -1.05840627E-04 -3.84371031E-04  2.15016777E-04  2.64923545E-06
 -2.71192708E-06 -2.28874499E-05 -1.41193667E-05 -2.34961794E-05  2.82362851E-06
  3.97520083E-07  1.28675242E-06 -2.32034281E-06 -1.73397937E-07  1.19649243E-05
 -3.79986224E-05  1.45789930E-04 -1.89383754E-04 -1.81121509E-04 -7.36758896E-03
  3.61307510E-04 -4.44103696E-04  7.79072508E-04  2.42036519E-06  1.47853920E-07
  4.91273778E-07  7.05345263E-06  7.27623457E-06  2.89507767E-06  3.04703756E-06
  3.10402321E-05 -1.24119461E-06 -2.31637543E-08 -7.87851258E-06 -1.71975727E-04
  1.42252086E-06  3.04285526E-06  7.15752405E-05  3.69982236E-04  1.46333804E-04
  1.23314380E-04 -8.47035960E-05  1.88159784E-05  3.33095945E-05  1.60446367E-05
  1.04126115E-06 -5.99763916E-06  3.10603476E-06  3.94082958E-06  1.79824560E-05
 -1.70700806E-05  5.14031974E-06 -9.19408184E-06 -1.74020879E-04  8.25439119E-05
  2.10774587E-05 -3.82793449E-05  1.29016922E-03  3.40670587E-05  1.80738181E-04
  3.28308799E-04  7.30083238E-06  6.94982052E-06 -1.05331300E-06  7.79690330E-06
 -3.40196112E-06  8.36808114E-06 -1.98127148E-05  1.16630704E-04  1.83272611E-05
 -9.40578231E-06  1.40341651E-05 -4.90010568E-05 -4.87754480E-05  4.27225727E-05
 -2.37627619E-05 -1.58155429E-04 -2.48705517E-05  1.73673064E-04  7.59249526E-06
  2.64455859E-05  2.15372888E-05 -1.38132638E-07  6.25987146E-06  8.64227275E-05
 -2.97961217E-04  8.35616903E-05 -2.27008660E-05 -1.92353060E-03 -7.48224465E-05
  5.52288272E-04  4.39354523E-04  9.92197000E-06  1.39622915E-05  2.61885278E-05
 -8.63498044E-06 -5.85623988E-06  4.31343124E-06  9.69592298E-06  2.32079483E-05
 -4.42881215E-06  9.50038471E-07  1.23772209E-06 -1.23304593E-04  4.51890878E-05
  6.88116055E-06 -5.42549032E-05  2.81843961E-05 -1.79689892E-04  2.47429312E-05
 -1.24640003E-04  1.51804904E-05  2.60062405E-05  3.20264635E-06 -3.37494518E-06
  1.73188121E-06  6.51131805E-06  1.19272940E-05  3.16814131E-05  3.60681085E-06
 -1.28438484E-06  3.22690672E-08 -1.70782958E-04 -2.32133664E-05  9.11985069E-07
  7.08926876E-05  3.38627932E-05  5.04356183E-06  3.26222362E-05  7.46392186E-05
  2.17169160E-05  2.99499319E-05  3.82666462E-06  4.14673925E-06  5.08154416E-06
 -2.20930468E-06  1.88788291E-05  1.17711309E-04  1.83525072E-05 -3.80259702E-06
  1.74731025E-07 -4.26600186E-04 -2.32586356E-04 -8.56123154E-05  4.01489353E-05
 -1.23218394E-02 -4.80172679E-03 -1.29974964E-03 -1.42813384E-03 -1.49592146E-05
  3.26764526E-05  2.57927161E-05  1.28699613E-05 -1.69536372E-05  6.61994891E-06
  1.45535739E-05  1.34134918E-04 -8.32266711E-06  2.74463606E-06 -2.88916122E-05
 -5.16656437E-04  1.07194203E-04  8.78641681E-05  3.03959017E-04 -9.54680493E-03
 -5.97203007E-04  2.39693164E-03  4.42247592E-04 -9.39953212E-06 -4.16080109E-05
  1.57213679E-05  4.24243112E-05 -1.47104719E-05  2.36658191E-06  2.41424868E-05
  3.08444385E-05  9.62498543E-06  1.65505872E-06  7.83701243E-06 -2.34710676E-04
  5.43067365E-05 -1.37478435E-05 -2.10980080E-05  4.71927405E-04  1.76395640E-04
  1.77848881E-04  2.42035583E-04  6.91845937E-05  1.18220661E-05  3.06857306E-05
  2.23054592E-05  2.32979523E-05  6.29506861E-06 -3.87722414E-05  1.69773091E-04
  2.87363750E-04 -2.08234241E-04  1.97586452E-04  3.79183494E-04 -1.81378735E-04
  1.94828034E-04 -1.30765649E-04  3.71232241E-02 -1.30915159E-03 -9.91094175E-04
  8.50199573E-04  2.29966029E-05 -2.91144660E-05 -3.89330161E-05 -1.07196896E-04
  1.09658819E-04 -7.45250190E-05  9.92566260E-01  2.50120264E-02 -6.92766277E-04
  5.14061799E-04 -4.94676623E-04  1.59742660E-02  5.34709156E-04 -4.23550681E-04
  4.07689915E-04 -1.14912570E-02  5.23183930E-04 -2.94381655E-04  2.69706442E-04
 -8.76181139E-03 -8.70469168E-03 -8.70532779E-03  9.64770849E-05 -9.42729053E-05
  6.54950896E-05  1.46095455E-05  1.27455192E-04 -2.79393113E-05  1.69951266E-05
  6.02910124E-06 -4.50826396E-04  2.76573702E-04 -1.56234052E-04 -1.19392689E-04
 -7.64806243E-03  6.84376791E-05  5.68699522E-04 -2.01547743E-03  1.94886844E-06
  1.38829700E-05 -3.88426442E-05  2.00546865E-05 -2.34249640E-05  2.97224374E-05
  1.27959667E-05 -1.37197343E-04  5.56164753E-05 -7.85632373E-05  9.28074221E-06
 -1.73897429E-04 -3.69162334E-06 -1.26138234E-04  4.35685123E-05 -2.31998078E-05
  1.61965810E-05 -7.37453407E-05  9.93175862E-01  4.93881156E-02 -4.72121515E-04
  3.22269207E-04 -5.78676256E-05 -1.65533406E-02 -2.01854484E-03  9.65019255E-04
 -1.17557621E-04  2.65247559E-03  3.94091993E-04 -2.00331419E-04 -5.98262403E-05
 -8.72999733E-03 -8.87714707E-03 -7.76417263E-03 -1.37029227E-04 -1.82714168E-04
 -1.42950927E-04 -5.12250491E-05  3.87947685E-04 -2.63275121E-05  2.78674904E-05
 -8.32544019E-05 -1.51528278E-03 -1.07376685E-04  2.35429557E-04 -8.77814366E-04
  4.48219661E-03  1.32246600E-03 -1.05627082E-03  1.85745403E-03  3.17861613E-04
  3.56256343E-04 -1.97331906E-04  1.06788060E-04 -1.42242188E-04  2.20360063E-04
 -6.92457985E-05  3.25623300E-04 -5.95727199E-05  1.43548104E-05  7.20625821E-05
 -1.24455380E-03 -2.88660982E-04  6.08836587E-05  8.70059125E-04  4.02085482E-03
  1.57608039E-03 -6.54953761E-04 -1.40019264E-03  1.64508404E-04  3.61814495E-04
 -1.68170408E-04  1.03306648E-04  3.04401415E-04 -6.32063303E-05  5.49100540E-03
  2.84354953E-04  9.85345139E-05  2.85614599E-05  3.28467021E-05  1.74380961E-03
 -2.45735982E-03  1.88603981E-03 -1.10769510E-04 -9.11179377E-03  1.85286550E-03
 -2.10553193E-03  3.98806611E-04 -3.17177132E-04 -2.59007338E-04 -1.07243000E-04
  1.55754669E-04  8.23575132E-07  2.27409115E-05 -6.54921139E-05 -1.35148605E-04
  1.24418788E-04  3.74170564E-05  1.30714157E-05  9.99167487E-04 -3.06092331E-04
 -3.48927578E-04  3.94700774E-05 -5.37761561E-03 -1.89433133E-04  1.05973470E-03
  8.27718872E-04 -8.78205530E-05 -4.57086179E-05 -7.63331017E-05 -4.73871392E-05
  1.39915674E-05 -1.13426226E-06 -4.24126538E-05 -2.29857529E-04 -1.05141089E-06
 -5.44818607E-05 -1.09413461E-05  1.08635147E-03  3.77453667E-04  6.04803815E-04
  7.64107672E-05  1.39606967E-03 -3.90020706E-04  2.68938852E-04 -1.31696480E-04
 -8.20441253E-05  2.01869899E-05 -2.19220830E-04  2.17561418E-05  2.09839479E-05
  9.73319420E-06 -1.09735405E-04 -1.52834237E-04  7.13380565E-05  3.08436283E-05
  2.03811180E-05  6.66275564E-04 -5.69048590E-05 -9.38782718E-04 -8.37628987E-04
  1.24055681E-02 -1.35145561E-03  2.47877377E-03 -4.88367568E-04 -1.12071903E-04
 -3.38889521E-05 -7.65376695E-05  8.42554330E-05 -2.61076701E-05 -4.22317119E-06
 -1.35718876E-05 -6.11353244E-05  2.19667329E-05 -4.95627969E-06 -1.60856777E-05
  1.36658759E-04 -1.50981546E-04  1.33722900E-04  1.34876076E-04 -6.06828238E-04
  4.18759217E-05 -2.05279892E-04 -7.59144772E-05  7.32713283E-06 -2.16868013E-05
 -7.80356675E-05 -2.79131507E-05  1.04284579E-05 -2.72095696E-05  4.48243680E-05
  1.63436266E-04 -4.04731567E-06 -3.14032242E-06  2.32346489E-06 -9.72353089E-04
  2.07877054E-04  3.39796705E-04 -5.66117625E-04 -2.67679925E-03 -1.49592257E-05
 -1.51373020E-05 -7.97146288E-04  1.98802393E-05  4.74985556E-05  2.70536937E-05
  1.29044218E-05  4.15253701E-05  2.69561284E-05  2.03955931E-05 -1.76625249E-04
  8.84404255E-05 -5.52628349E-04  4.75092752E-05  1.16286562E-04 -2.04288690E-05
 -4.57335345E-04 -1.28000555E-04 -1.99041572E-04  1.28731556E-05  3.39799162E-05
 -5.63678828E-03 -3.22066306E-04  4.02058987E-05 -5.16591275E-06  7.33395473E-06
  1.63291461E-03  2.92248437E-03 -1.14361565E-03 -2.91827363E-04 -2.91317279E-03
 -7.79178389E-04  9.60301883E-04  7.61013964E-05 -2.32055706E-04 -1.52186087E-04
 -1.42495498E-04  2.00554036E-04  1.82942598E-05  2.96697322E-05 -3.94068633E-05
 -2.28123495E-04 -2.06879702E-05  3.53703804E-05 -6.46690926E-05  7.27177998E-04
 -1.36843323E-04 -1.25736925E-04  6.75717701E-04  9.85450351E-04 -1.38290254E-04
 -1.50941179E-04 -7.84599642E-05 -1.03990952E-04 -2.02490130E-04  3.05060956E-05
 -9.50364350E-05 -4.80815973E-06 -7.30035789E-05 -4.58824501E-05 -2.66991825E-04
 -3.67657149E-05  1.76659130E-05  6.80995009E-05  1.18967348E-03  1.71083079E-04
 -2.98453417E-05 -8.75279195E-04  1.95787423E-03  2.40934639E-04 -6.51991423E-05
 -1.41216412E-04 -9.43807681E-05 -2.34454727E-04  2.25420981E-05 -8.10082342E-05
 -6.98951816E-05  1.96285276E-06  9.93155206E-01  4.99116999E-02 -2.26021902E-04
 -1.21253899E-03 -1.06575868E-04 -1.77487707E-02  4.91859244E-04 -2.81468178E-03
  4.16582227E-04 -1.72528616E-02 -2.92363902E-03 -4.54467987E-03 -7.93980945E-04