
Running Job 1 of 3 ts1000.qcin
qchem ts1000.qcin_15067.0 /tmp/ts1000.qcin/ 1
/programs/x86_64/lib/qchem-4.3.2/bin/mpi/mpirun_qchem -machinefile /var/spool/torque/aux//119440.vali -np 1 /programs/x86_64/lib/qchem-4.3.2/exe/qcprog.exe ts1000.qcin_15067.0 /tmp/ts1000.qcin/

Process 0 of 1 is on bt2600-11.csail.mit.edu - thread support 0
initial socket setup ...start
initial socket setup ...done 
now start server 0 ... 

cmd = ssh thor /programs/x86_64/lib/qchem-4.3.2/bin/get_hostid 1311315820 > /tmp/ts1000.qcin/lic.dat
                  Welcome to Q-Chem
     A Quantum Leap Into The Future Of Chemistry


 Q-Chem 4.3, Q-Chem, Inc., Pleasanton, CA (2015)

 Y. Shao,  Z. Gan,  E. Epifanovsky,  A. T. B. Gilbert,  M. Wormit,  
 J. Kussmann,  A. W. Lange,  A. Behn,  J. Deng,  X. Feng,  D. Ghosh,  
 M. Goldey,  P. R. Horn,  L. D. Jacobson,  I. Kaliman,  R. Z. Khaliullin,  
 T. Kus,  A. Landau,  J. Liu,  E. I. Proynov,  Y. M. Rhee,  R. M. Richard,  
 M. A. Rohrdanz,  R. P. Steele,  E. J. Sundstrom,  H. L. Woodcock III,  
 P. M. Zimmerman,  D. Zuev,  B. Albrecht,  E. Alguire,  B. Austin,  
 S. A. Baeppler,  G. J. O. Beran,  Y. A. Bernard,  E. Berquist,  
 K. Brandhorst,  K. B. Bravaya,  S. T. Brown,  D. Casanova,  C.-M. Chang,  
 Y. Chen,  S. H. Chien,  K. D. Closser,  D. L. Crittenden,  M. Diedenhofen,  
 R. A. DiStasio Jr.,  H. Do,  A. D. Dutoi,  R. G. Edgar,  P.-T. Fang,  
 S. Fatehi,  Q. Feng,  L. Fusti-Molnar,  A. Ghysels,  
 A. Golubeva-Zadorozhnaya,  J. Gomes,  A. Gunina,  M. W. D. Hanson-Heine,  
 P. H. P. Harbach,  A. W. Hauser,  E. G. Hohenstein,  Z. C. Holden,  K. Hui,  
 T.-C. Jagau,  H. Ji,  B. Kaduk,  K. Khistyaev,  Jaehoon Kim,  Jihan Kim,  
 R. A. King,  P. Klunzinger,  D. Kosenkov,  T. Kowalczyk,  C. M. Krauter,  
 K. U. Lao,  A. Laurent,  K. V. Lawler,  S. Lehtola,  S. V. Levchenko,  
 C. Y. Lin,  Y.-S. Lin,  F. Liu,  E. Livshits,  R. C. Lochan,  A. Luenser,  
 P. Manohar,  S. F. Manzer,  S.-P. Mao,  N. Mardirossian,  A. V. Marenich,  
 L. A. Martinez-Martinez,  S. A. Maurer,  N. J. Mayhall,  K. Nanda,  
 C. M. Oana,  R. Olivares-Amaya,  D. P. O'Neill,  J. A. Parkhill,  
 T. M. Perrine,  R. Peverati,  P. A. Pieniazek,  F. Plasser,  A. Prociuk,  
 D. R. Rehn,  E. Rosta,  N. J. Russ,  N. Sergueev,  S. M. Sharada,  
 S. Sharma,  D. W. Small,  A. Sodt,  T. Stauch,  T. Stein,  D. Stuck,  
 Y.-C. Su,  A. J. W. Thom,  T. Tsuchimochi,  L. Vogt,  O. Vydrov,  T. Wang,  
 M. A. Watson,  J. Wenzel,  A. White,  C. F. Williams,  V. Vanovschi,  
 S. Yeganeh,  S. R. Yost,  Z.-Q. You,  I. Y. Zhang,  X. Zhang,  Y. Zhao,  
 B. R. Brooks,  G. K. L. Chan,  D. M. Chipman,  C. J. Cramer,  
 W. A. Goddard III,  M. S. Gordon,  W. J. Hehre,  A. Klamt,  
 H. F. Schaefer III,  M. W. Schmidt,  C. D. Sherrill,  D. G. Truhlar,  
 A. Warshel,  X. Xu,  A. Aspuru-Guzik,  R. Baer,  A. T. Bell,  N. A. Besley,  
 J.-D. Chai,  A. Dreuw,  B. D. Dunietz,  T. R. Furlani,  S. R. Gwaltney,  
 C.-P. Hsu,  Y. Jung,  J. Kong,  D. S. Lambrecht,  W. Liang,  C. Ochsenfeld,  
 V. A. Rassolov,  L. V. Slipchenko,  J. E. Subotnik,  T. Van Voorhis,  
 J. M. Herbert,  A. I. Krylov,  P. M. W. Gill,  M. Head-Gordon

 Contributors to earlier versions of Q-Chem not listed above: 
 R. D. Adamson,  J. Baker,  E. F. C. Byrd,  A. K. Chakraborty,  C.-L. Cheng,  
 H. Dachsel,  R. J. Doerksen,  G. Hawkins,  A. Heyden,  S. Hirata,  
 G. Kedziora,  F. J. Keil,  C. Kelley,  P. P. Korambath,  W. Kurlancheek,  
 A. M. Lee,  M. S. Lee,  D. Liotard,  I. Lotan,  P. E. Maslen,  N. Nair,  
 D. Neuhauser,  R. Olson,  B. Peters,  J. Ritchie,  N. E. Schultz,  
 N. Shenvi,  A. C. Simmonett,  K. S. Thanthiriwatte,  Q. Wu,  W. Zhang

 Please cite Q-Chem as follows:
 Y. Shao et al., Mol. Phys. 113, 184-215 (2015)
 DOI: 10.1080/00268976.2014.952696

 Q-Chem 4.3.0 for Intel X86 Linux

 Parts of Q-Chem use Armadillo 5.200.1 (Boston Tea Smuggler).
 http://arma.sourceforge.net/

 Q-Chem begins on Tue Jun  6 16:34:56 2017  

Host: 
0

     Scratch files written to /tmp/ts1000.qcin//
 Oct1215 13750_ 19228  19214 4150   
 Parallel job on  1  processors
Processing $rem in /programs/x86_64/lib/qchem-4.3.2/config/preferences.
 MEM_TOTAL  2000 

Checking the input file for inconsistencies... 	...done.

--------------------------------------------------------------
User input:
--------------------------------------------------------------
sublime $comment
Title
$end

$molecule
-2 1
C         3.457        -1.303          2.639
O         4.585        -1.568          2.152
O         3.156        -1.669          3.838
C         2.431        -0.611          1.760
C         2.048        -1.964          0.324
O         1.323        -0.391          2.447
C         2.490         0.068          0.516
O         1.481         0.694          0.023
C         3.695         0.184         -0.328
H         3.485        -0.146         -1.481
H         4.489        -0.484          0.104
H         4.132         1.211         -0.539
H         1.160        -1.639         -0.299
H         1.810        -2.780          1.053
H         3.012        -2.165         -0.257
$end


$solvent
CavityRadius    30
Dielectric     78.39
$end

$molecule
READ
$end

$rem
jobtype          FREQ
exchange         b3lyp
basis            6-31+G(d)
pdb_print 2
SOLVENT_METHOD ONSAGER
NBO TRUE
$end

--------------------------------------------------------------
 ----------------------------------------------------------------
             Standard Nuclear Orientation (Angstroms)
    I     Atom           X                Y                Z
 ----------------------------------------------------------------
    1      C       1.4882892191     0.2706092693     0.1613789029
    2      O       1.5010495340     1.5228911885     0.0545839163
    3      O       2.5903451978    -0.3974150563     0.1984480293
    4      C       0.1490261529    -0.4438831161     0.1688669502
    5      C      -0.5850571954    -0.0933644888    -1.6689720878
    6      O       0.3323923156    -1.7450221292     0.3153152990
    7      C      -1.1964931173    -0.0234786879     0.3266516463
    8      O      -2.1724040807    -0.8549054289     0.4232609924
    9      C      -1.6354856969     1.3803265518     0.4467905832
   10      H      -2.5319984763     1.6522067050    -0.3308693802
   11      H      -0.7524645874     2.0415201648     0.2314287334
   12      H      -2.1484924156     1.7251807592     1.3997431960
   13      H      -1.5056041555    -0.7261774871    -1.8545495741
   14      H       0.3319073370    -0.4721925947    -2.1882083659
   15      H      -0.7260876108     1.0338166904    -1.7987064747
 ----------------------------------------------------------------
 Molecular Point Group                 C1    NOp =  1
 Largest Abelian Subgroup              C1    NOp =  1
 Nuclear Repulsion Energy =   451.5253025443 hartrees
 There are       35 alpha and       35 beta electrons
 Requested basis set is 6-31+G(d)
 There are 57 shells and 183 basis functions

 Total QAlloc Memory Limit   2000 MB
 Mega-Array Size        61 MB
 MEM_STATIC part        62 MB

                       Distance Matrix (Angstroms)
             C (  1)   O (  2)   O (  3)   C (  4)   C (  5)   O (  6)
   O (  2)  1.256892
   O (  3)  1.289247  2.212428
   C (  4)  1.517953  2.389399  2.441940
   C (  5)  2.789521  3.151947  3.696334  2.009824
   O (  6)  2.328640  3.480373  2.632120  1.322132  2.739906
   C (  7)  2.705893  3.121220  3.807415  1.418470  2.088361  2.302462
   O (  8)  3.838755  4.391367  4.789950  2.371222  2.734420  2.660445
   C (  9)  3.327297  3.164175  4.591262  2.566995  2.784173  3.695624
   H ( 10)  4.279466  4.053489  5.542520  3.439654  2.937366  4.490373
   H ( 11)  2.856923  2.319176  4.138100  2.644585  2.863089  3.939778
   H ( 12)  4.107981  3.894808  5.329644  3.390942  3.894669  4.401486
   H ( 13)  3.744456  4.212252  4.593439  2.629012  1.132386  3.020693
   H ( 14)  2.722046  3.221393  3.286679  2.364329  1.119795  2.808510
   H ( 15)  3.054159  2.938370  4.127442  2.611660  1.143354  3.648481
             C (  7)   O (  8)   C (  9)   H ( 10)   H ( 11)   H ( 12)
   O (  8)  1.285693
   C (  9)  1.475743  2.298934
   H ( 10)  2.241390  2.642656  1.217542
   H ( 11)  2.114344  3.231456  1.123959  1.906433
   H ( 12)  2.261778  2.758792  1.135878  1.774098  1.847680
   H ( 13)  2.312352  2.376892  3.122562  3.005295  3.546643  4.124668
   H ( 14)  2.976890  3.638381  3.774345  4.020539  3.653664  4.884079
   H ( 15)  2.419980  3.255187  2.447311  2.407959  2.266630  3.568095
             H ( 13)   H ( 14)
   H ( 14)  1.884751
   H ( 15)  1.925706  1.881257
 
 A cutoff of  1.0D-11 yielded   1549 shell pairs
 There are     16580 function pairs
 
 -------------------------------------------------------
 OpenMP Integral Computing Module                       
 Release: version 1.0, May 2013, Q-Chem Inc. Pittsburgh 
 -------------------------------------------------------
 Integral Job Info:
 Integral job number is                      11
 Integral operator is                         1
 short-range coefficients                     0
 long-range coefficients              100000000
 Omega coefficients                           0
 if combine SR and LR in K                    0
 Integral screening is                        0
 Integral computing path is                   2
 max size of driver memory is            800000
 size of driver memory is                593474
 size of scratch memory is              2260544
 max col of scratch BK array               1296
 max len of scratch array in speh3          155
 max len of scratch index in speh4           18
 max int batch size is                      520
 min int batch size is                       52
 fixed nKL is                                52
 max L of basis functions is                  2
 order of int derivative is                   0
 number of shells is                         57
 number of basis is                         183
 number of cartesian basis is               183
 number of contracted shell pairs          1549
 number of primitive shell pairs           5377
 maxK2 (contraction) of shell pair           36
 max number of K2 of shell pair               1
 max number of CS2 of shell pair            200
 max number of PS2 of shell pair           1200
 mem total for path MDJ                   43048
 -------------------------------------------------------
 Smallest overlap matrix eigenvalue = 1.22E-05
 Placing solute cavity origin at the center of mass
 Center of Onsager solute cavity (Angst): (   0.055864,  -0.040036,   0.034613)
 Solvent multipole matrices computed through 15th order
 Guess from superposition of atomic densities
 Warning:  Energy on first SCF cycle will be non-variational
 A restricted hybrid HF-DFT SCF calculation will be
 performed using Pulay DIIS extrapolation
 Kirkwood-Onsager solvation model will be applied
 Exchange:     0.2000 Hartree-Fock + 0.0800 Slater + 0.7200 B88
 Correlation:  0.1900 VWN1RPA + 0.8100 LYP
 Using SG-1 standard quadrature grid
 SCF converges when DIIS error is below 1.0E-08
 Kirkwood-Onsager SCRF: 
 Maximum multipole order     = 15
 Solvent dielectric constant = 78.3900
 Cavity radius               = 56.6917 bohr
 Born term (E_born)          = -0.03482849 a.u. = -21.8552 kcal/mol
 CPU 0.00 s  wall 0.00 s
 Inaccurate integrated density:
   Number of electrons =    70
   Numerical integral  =    67.999844244325
   Relative error      =    -2.8573653653 %
 CPU 4.80 s  wall 4.80 s
 ---------------------------------------
  Cycle       Energy         DIIS Error
 ---------------------------------------
    1    -496.1329305168      4.80E-02
 CPU 0.00 s  wall 0.00 s
 CPU 5.42 s  wall 5.42 s
    2    -494.5242243813      1.08E-02
 CPU 0.00 s  wall 0.00 s
 CPU 5.42 s  wall 5.42 s
    3    -489.4381695094      3.12E-02
 CPU 0.00 s  wall 0.00 s
 CPU 5.43 s  wall 5.43 s
    4    -494.6679348942      8.53E-03
 CPU 0.00 s  wall 0.00 s
 CPU 5.37 s  wall 5.37 s
    5    -494.9529356552      1.67E-03
 CPU 0.00 s  wall 0.00 s
 CPU 5.36 s  wall 5.36 s
    6    -494.9548256262      1.85E-03
 CPU 0.00 s  wall 0.00 s
 CPU 5.33 s  wall 5.33 s
    7    -494.9651541103      6.26E-04
 CPU 0.00 s  wall 0.00 s
 CPU 5.28 s  wall 5.28 s
    8    -494.9662768996      2.45E-04
 CPU 0.00 s  wall 0.00 s
 CPU 5.24 s  wall 5.24 s
    9    -494.9664989102      5.08E-05
 CPU 0.00 s  wall 0.00 s
 CPU 5.20 s  wall 5.20 s
   10    -494.9665072780      2.79E-05
 CPU 0.00 s  wall 0.00 s
 CPU 5.14 s  wall 5.14 s
   11    -494.9665099754      6.63E-06
 CPU 0.00 s  wall 0.00 s
 CPU 5.09 s  wall 5.09 s
   12    -494.9665101272      2.87E-06
 CPU 0.00 s  wall 0.00 s
 CPU 5.01 s  wall 5.01 s
   13    -494.9665101622      5.72E-07
 CPU 0.00 s  wall 0.00 s
 CPU 4.87 s  wall 4.87 s
   14    -494.9665101636      2.58E-07
 CPU 0.00 s  wall 0.00 s
 CPU 4.78 s  wall 4.78 s
   15    -494.9665101633      1.13E-07
 CPU 0.00 s  wall 0.00 s
 CPU 4.64 s  wall 4.64 s
   16    -494.9665101633      3.72E-08
 CPU 0.00 s  wall 0.00 s
 CPU 4.44 s  wall 4.44 s
   17    -494.9665101622      1.27E-08
 CPU 0.00 s  wall 0.00 s
 CPU 4.07 s  wall 4.07 s
   18    -494.9665101620      5.05E-09 Convergence criterion met
 ---------------------------------------
 SCF time:  CPU 213.87 s  wall 213.38 s
 SCF   energy in the final basis set = -494.9665101620
 Total energy in the final basis set = -494.9665101620
 
 --------------------------------------------------------------
 
                    Orbital Energies (a.u.)
 --------------------------------------------------------------
 
 Alpha MOs
 -- Occupied --
-18.801 -18.783 -18.773 -18.760  -9.965  -9.959  -9.939  -9.926
 -9.914  -0.709  -0.692  -0.628  -0.600  -0.468  -0.401  -0.345
 -0.269  -0.189  -0.157  -0.146  -0.125  -0.118  -0.111  -0.093
 -0.082  -0.081  -0.051  -0.042   0.019   0.052   0.064   0.070
  0.087   0.105   0.119
 -- Virtual --
  0.222   0.236   0.263   0.271   0.276   0.293   0.296   0.304
  0.309   0.320   0.323   0.333   0.340   0.344   0.355   0.365
  0.370   0.390   0.397   0.406   0.430   0.434   0.465   0.478
  0.485   0.499   0.508   0.514   0.520   0.530   0.546   0.561
  0.568   0.574   0.577   0.587   0.590   0.595   0.609   0.619
  0.633   0.637   0.653   0.675   0.687   0.698   0.720   0.734
  0.763   0.788   0.844   0.904   0.930   0.956   0.977   0.989
  1.021   1.054   1.075   1.099   1.120   1.143   1.184   1.195
  1.212   1.218   1.236   1.281   1.307   1.333   1.361   1.373
  1.414   1.420   1.465   1.510   1.559   1.564   1.585   1.617
  1.634   1.652   1.663   1.679   1.680   1.689   1.715   1.719
  1.752   1.769   1.779   1.801   1.827   1.884   1.928   1.973
  2.017   2.039   2.059   2.092   2.111   2.130   2.160   2.180
  2.184   2.204   2.220   2.257   2.277   2.303   2.318   2.333
  2.353   2.405   2.431   2.465   2.470   2.512   2.542   2.568
  2.616   2.667   2.678   2.708   2.744   2.795   2.819   2.900
  2.916   2.998   3.037   3.072   3.212   3.327   3.379   3.455
  3.457   3.580   3.643   4.473   4.521   4.590   4.632   4.758
  4.826   4.903   4.936   5.292
 --------------------------------------------------------------
 
          Ground-State Mulliken Net Atomic Charges

     Atom                 Charge (a.u.)
  ----------------------------------------
      1 C                     0.535918
      2 O                    -0.622912
      3 O                    -0.623483
      4 C                    -0.182915
      5 C                    -0.772004
      6 O                    -0.534574
      7 C                     0.382114
      8 O                    -0.547307
      9 C                    -0.816200
     10 H                     0.153905
     11 H                     0.252816
     12 H                     0.155680
     13 H                     0.214584
     14 H                     0.209449
     15 H                     0.194928
  ----------------------------------------
  Sum of atomic charges =    -2.000000

 -----------------------------------------------------------------
                    Cartesian Multipole Moments
 -----------------------------------------------------------------
    Charge (ESU x 10^10)
                -9.6064
    Dipole Moment (Debye)
         X      -3.7760      Y       3.2174      Z      -0.1588
       Tot       4.9634
    Quadrupole Moments (Debye-Ang)
        XX    -104.8356     XY      -6.4544     YY     -84.4133
        XZ      -1.1568     YZ       3.7181     ZZ     -67.3252
    Octopole Moments (Debye-Ang^2)
       XXX      -3.5018    XXY       1.4918    XYY      -2.5180
       YYY     -10.4325    XXZ      -3.0870    XYZ      -2.5595
       YYZ       0.2931    XZZ      15.7268    YZZ      -5.0453
       ZZZ      38.8663
    Hexadecapole Moments (Debye-Ang^3)
      XXXX   -1245.9950   XXXY     -10.7342   XXYY    -288.2394
      XYYY      -2.1761   YYYY    -552.5304   XXXZ      -5.1440
      XXYZ      10.3392   XYYZ      -1.8205   YYYZ       4.6719
      XXZZ    -224.0926   XYZZ       4.6616   YYZZ    -136.8059
      XZZZ     -33.6508   YZZZ       5.9004   ZZZZ    -386.9683
 -----------------------------------------------------------------

 Begin NBO analysis for the ground state 


 *********************************** NBO 5.0 ***********************************
             N A T U R A L   A T O M I C   O R B I T A L   A N D
          N A T U R A L   B O N D   O R B I T A L   A N A L Y S I S
 *******************************************************************************
  (c) Copyright 1996-2002 Board of Regents of the University of Wisconsin System
      on behalf of the Theoretical Chemistry Institute.  All Rights Reserved.

          Cite this program as:

          NBO 5.0.  E. D. Glendening, J. K. Badenhoop, A. E. Reed,
          J. E. Carpenter, J. A. Bohmann, C. M. Morales, and F. Weinhold
          (Theoretical Chemistry Institute, University of Wisconsin,
          Madison, WI, 2001); http://www.chem.wisc.edu/~nbo5

       /PRINT  / : Print level set to  1
  This is a closed-shell NBO calculation

 Job title: Starting NBO analysis.                                          

 Storage needed:      168297 in NPA,      134749 in NBO (     7716830 available)


 NATURAL POPULATIONS:  Natural atomic orbital occupancies 
                                                          
  NAO Atom No lang   Type(AO)    Occupancy      Energy    
 ---------------------------------------------------------
   1    C  1  s      Cor( 1s)     1.99934      -9.83949
   2    C  1  s      Val( 2s)     0.79015       0.19834
   3    C  1  s      Ryd( 3s)     0.01222       1.10566
   4    C  1  s      Ryd( 4s)     0.00247       1.77653
   5    C  1  s      Ryd( 5s)     0.00024       3.19225
   6    C  1  px     Val( 2p)     0.87388       0.31909
   7    C  1  px     Ryd( 4p)     0.01247       1.12494
   8    C  1  px     Ryd( 3p)     0.00135       0.77644
   9    C  1  py     Val( 2p)     0.76414       0.34006
  10    C  1  py     Ryd( 4p)     0.01969       1.14231
  11    C  1  py     Ryd( 3p)     0.00082       0.63594
  12    C  1  pz     Val( 2p)     0.78636       0.22888
  13    C  1  pz     Ryd( 4p)     0.00231       0.98429
  14    C  1  pz     Ryd( 3p)     0.00039       0.48717
  15    C  1  dxy    Ryd( 3d)     0.00392       2.89811
  16    C  1  dxz    Ryd( 3d)     0.00127       2.34375
  17    C  1  dyz    Ryd( 3d)     0.00265       2.45946
  18    C  1  dx2y2  Ryd( 3d)     0.00411       2.88837
  19    C  1  dz2    Ryd( 3d)     0.00038       2.68674
 
  20    O  2  s      Cor( 1s)     1.99979     -18.53327
  21    O  2  s      Val( 2s)     1.72245      -0.55003
  22    O  2  s      Ryd( 3s)     0.00256       0.89068
  23    O  2  s      Ryd( 4s)     0.00027       2.33225
  24    O  2  s      Ryd( 5s)     0.00009       4.25297
  25    O  2  px     Val( 2p)     1.89483       0.08265
  26    O  2  px     Ryd( 3p)     0.00434       0.88414
  27    O  2  px     Ryd( 4p)     0.00017       1.52634
  28    O  2  py     Val( 2p)     1.57944       0.04653
  29    O  2  py     Ryd( 3p)     0.00107       0.92357
  30    O  2  py     Ryd( 4p)     0.00026       1.71890
  31    O  2  pz     Val( 2p)     1.60301       0.08450
  32    O  2  pz     Ryd( 3p)     0.00228       0.73383
  33    O  2  pz     Ryd( 4p)     0.00009       1.41008
  34    O  2  dxy    Ryd( 3d)     0.00275       2.49694
  35    O  2  dxz    Ryd( 3d)     0.00010       2.17459
  36    O  2  dyz    Ryd( 3d)     0.00299       2.36936
  37    O  2  dx2y2  Ryd( 3d)     0.00331       2.73655
  38    O  2  dz2    Ryd( 3d)     0.00098       2.40645
 
  39    O  3  s      Cor( 1s)     1.99981     -18.53562
  40    O  3  s      Val( 2s)     1.74206      -0.53672
  41    O  3  s      Ryd( 3s)     0.00189       1.12583
  42    O  3  s      Ryd( 4s)     0.00022       2.25528
  43    O  3  s      Ryd( 5s)     0.00005       4.15278
  44    O  3  px     Val( 2p)     1.61000       0.08047
  45    O  3  px     Ryd( 3p)     0.00134       0.95729
  46    O  3  px     Ryd( 4p)     0.00014       1.56821
  47    O  3  py     Val( 2p)     1.81774       0.09527
  48    O  3  py     Ryd( 3p)     0.00261       0.82815
  49    O  3  py     Ryd( 4p)     0.00015       1.54852
  50    O  3  pz     Val( 2p)     1.60339       0.10244
  51    O  3  pz     Ryd( 3p)     0.00207       0.74753
  52    O  3  pz     Ryd( 4p)     0.00003       1.42462
  53    O  3  dxy    Ryd( 3d)     0.00265       2.70314
  54    O  3  dxz    Ryd( 3d)     0.00200       2.32147
  55    O  3  dyz    Ryd( 3d)     0.00069       2.24212
  56    O  3  dx2y2  Ryd( 3d)     0.00270       2.57861
  57    O  3  dz2    Ryd( 3d)     0.00076       2.41478
 
  58    C  4  s      Cor( 1s)     1.99871      -9.80575
  59    C  4  s      Val( 2s)     0.91730       0.12729
  60    C  4  s      Ryd( 4s)     0.00735       1.87022
  61    C  4  s      Ryd( 5s)     0.00100       2.81110
  62    C  4  s      Ryd( 3s)     0.00012       1.51935
  63    C  4  px     Val( 2p)     1.08763       0.24384
  64    C  4  px     Ryd( 4p)     0.00520       1.35047
  65    C  4  px     Ryd( 3p)     0.00063       0.81927
  66    C  4  py     Val( 2p)     0.86233       0.26776
  67    C  4  py     Ryd( 4p)     0.01628       1.27496
  68    C  4  py     Ryd( 3p)     0.00084       0.66939
  69    C  4  pz     Val( 2p)     0.86772       0.20792
  70    C  4  pz     Ryd( 4p)     0.00282       1.05816
  71    C  4  pz     Ryd( 3p)     0.00121       0.58792
  72    C  4  dxy    Ryd( 3d)     0.00337       2.70260
  73    C  4  dxz    Ryd( 3d)     0.00101       2.28253
  74    C  4  dyz    Ryd( 3d)     0.00211       2.33739
  75    C  4  dx2y2  Ryd( 3d)     0.00158       2.85312
  76    C  4  dz2    Ryd( 3d)     0.00083       2.62743
 
  77    C  5  s      Cor( 1s)     1.99952      -9.81007
  78    C  5  s      Val( 2s)     1.25453      -0.05819
  79    C  5  s      Ryd( 3s)     0.01603       0.63814
  80    C  5  s      Ryd( 4s)     0.00088       1.57973
  81    C  5  s      Ryd( 5s)     0.00002       4.31569
  82    C  5  px     Val( 2p)     1.22734       0.19405
  83    C  5  px     Ryd( 3p)     0.00354       0.61404
  84    C  5  px     Ryd( 4p)     0.00049       0.84065
  85    C  5  py     Val( 2p)     1.21334       0.19129
  86    C  5  py     Ryd( 3p)     0.00340       0.57824
  87    C  5  py     Ryd( 4p)     0.00060       0.82962
  88    C  5  pz     Val( 2p)     1.05625       0.17114
  89    C  5  pz     Ryd( 3p)     0.01555       0.64495
  90    C  5  pz     Ryd( 4p)     0.00093       0.82284
  91    C  5  dxy    Ryd( 3d)     0.00103       2.36765
  92    C  5  dxz    Ryd( 3d)     0.00087       2.36746
  93    C  5  dyz    Ryd( 3d)     0.00042       2.12329
  94    C  5  dx2y2  Ryd( 3d)     0.00124       2.35929
  95    C  5  dz2    Ryd( 3d)     0.00082       2.32761
 
  96    O  6  s      Cor( 1s)     1.99983     -18.51741
  97    O  6  s      Val( 2s)     1.73548      -0.52733
  98    O  6  s      Ryd( 3s)     0.00126       1.47873
  99    O  6  s      Ryd( 4s)     0.00021       2.33358
 100    O  6  s      Ryd( 5s)     0.00005       3.94445
 101    O  6  px     Val( 2p)     1.89735       0.11350
 102    O  6  px     Ryd( 3p)     0.00270       1.03018
 103    O  6  px     Ryd( 4p)     0.00018       1.42871
 104    O  6  py     Val( 2p)     1.50748       0.09203
 105    O  6  py     Ryd( 3p)     0.00075       1.16259
 106    O  6  py     Ryd( 4p)     0.00021       1.36782
 107    O  6  pz     Val( 2p)     1.60854       0.11482
 108    O  6  pz     Ryd( 3p)     0.00272       0.95055
 109    O  6  pz     Ryd( 4p)     0.00016       1.33274
 110    O  6  dxy    Ryd( 3d)     0.00211       2.56784
 111    O  6  dxz    Ryd( 3d)     0.00011       2.22870
 112    O  6  dyz    Ryd( 3d)     0.00219       2.41207
 113    O  6  dx2y2  Ryd( 3d)     0.00232       2.74908
 114    O  6  dz2    Ryd( 3d)     0.00080       2.45671
 
 115    C  7  s      Cor( 1s)     1.99889      -9.82321
 116    C  7  s      Val( 2s)     0.85434       0.13417
 117    C  7  s      Ryd( 3s)     0.00578       1.52137
 118    C  7  s      Ryd( 4s)     0.00139       1.75508
 119    C  7  s      Ryd( 5s)     0.00012       4.06408
 120    C  7  px     Val( 2p)     0.97636       0.25508
 121    C  7  px     Ryd( 4p)     0.01234       1.08038
 122    C  7  px     Ryd( 3p)     0.00165       0.72400
 123    C  7  py     Val( 2p)     0.94039       0.23789
 124    C  7  py     Ryd( 4p)     0.01266       1.21481
 125    C  7  py     Ryd( 3p)     0.00145       0.62966
 126    C  7  pz     Val( 2p)     0.80565       0.19350
 127    C  7  pz     Ryd( 4p)     0.00383       1.00613
 128    C  7  pz     Ryd( 3p)     0.00170       0.52173
 129    C  7  dxy    Ryd( 3d)     0.00151       2.77002
 130    C  7  dxz    Ryd( 3d)     0.00199       2.33074
 131    C  7  dyz    Ryd( 3d)     0.00086       2.25825
 132    C  7  dx2y2  Ryd( 3d)     0.00362       2.75085
 133    C  7  dz2    Ryd( 3d)     0.00101       2.58823
 
 134    O  8  s      Cor( 1s)     1.99980     -18.54544
 135    O  8  s      Val( 2s)     1.71567      -0.56226
 136    O  8  s      Ryd( 3s)     0.00105       1.65421
 137    O  8  s      Ryd( 4s)     0.00019       2.32493
 138    O  8  s      Ryd( 5s)     0.00006       3.64161
 139    O  8  px     Val( 2p)     1.67026       0.05419
 140    O  8  px     Ryd( 3p)     0.00214       0.96302
 141    O  8  px     Ryd( 4p)     0.00019       1.50233
 142    O  8  py     Val( 2p)     1.76738       0.05990
 143    O  8  py     Ryd( 3p)     0.00265       0.94299
 144    O  8  py     Ryd( 4p)     0.00022       1.44387
 145    O  8  pz     Val( 2p)     1.58448       0.07537
 146    O  8  pz     Ryd( 3p)     0.00283       0.85232
 147    O  8  pz     Ryd( 4p)     0.00017       1.35500
 148    O  8  dxy    Ryd( 3d)     0.00256       2.73725
 149    O  8  dxz    Ryd( 3d)     0.00130       2.29471
 150    O  8  dyz    Ryd( 3d)     0.00133       2.25634
 151    O  8  dx2y2  Ryd( 3d)     0.00239       2.52312
 152    O  8  dz2    Ryd( 3d)     0.00083       2.40584
 
 153    C  9  s      Cor( 1s)     1.99927      -9.79426
 154    C  9  s      Val( 2s)     1.12320      -0.01422
 155    C  9  s      Ryd( 3s)     0.00248       0.86059
 156    C  9  s      Ryd( 4s)     0.00071       1.57405
 157    C  9  s      Ryd( 5s)     0.00002       4.28884
 158    C  9  px     Val( 2p)     1.23389       0.17076
 159    C  9  px     Ryd( 3p)     0.00352       0.71380
 160    C  9  px     Ryd( 4p)     0.00055       0.71547
 161    C  9  py     Val( 2p)     1.14458       0.17655
 162    C  9  py     Ryd( 3p)     0.00225       0.58381
 163    C  9  py     Ryd( 4p)     0.00100       0.65681
 164    C  9  pz     Val( 2p)     1.20836       0.16427
 165    C  9  pz     Ryd( 4p)     0.00148       0.76871
 166    C  9  pz     Ryd( 3p)     0.00088       0.65879
 167    C  9  dxy    Ryd( 3d)     0.00136       2.44378
 168    C  9  dxz    Ryd( 3d)     0.00119       2.28246
 169    C  9  dyz    Ryd( 3d)     0.00045       2.17624
 170    C  9  dx2y2  Ryd( 3d)     0.00070       2.39035
 171    C  9  dz2    Ryd( 3d)     0.00087       2.34171
 
 172    H 10  s      Val( 1s)     0.81103       0.24054
 173    H 10  s      Ryd( 2s)     0.00300       1.07659
 
 174    H 11  s      Val( 1s)     0.73459       0.36025
 175    H 11  s      Ryd( 2s)     0.00214       1.12756
 
 176    H 12  s      Val( 1s)     0.77990       0.29891
 177    H 12  s      Ryd( 2s)     0.00129       1.00154
 
 178    H 13  s      Val( 1s)     0.76693       0.33823
 179    H 13  s      Ryd( 2s)     0.00260       1.07395
 
 180    H 14  s      Val( 1s)     0.76466       0.35407
 181    H 14  s      Ryd( 2s)     0.00153       1.05223
 
 182    H 15  s      Val( 1s)     0.79392       0.31379
 183    H 15  s      Ryd( 2s)     0.00200       1.11105
 
   1 low occupancy (<1.9990e) core orbital  found on  C  4
   1 low occupancy (<1.9990e) core orbital  found on  C  7
 
     Population inversion found on atom  C  1
     Population inversion found on atom  C  4
     Population inversion found on atom  C  7
     Population inversion found on atom  C  9


 Summary of Natural Population Analysis:

                                     Natural Population
             Natural    ---------------------------------------------
  Atom No    Charge        Core      Valence    Rydberg      Total
 --------------------------------------------------------------------
    C  1    0.72184      1.99934     3.21453    0.06429     5.27816
    O  2   -0.82080      1.99979     6.79973    0.02128     8.82080
    O  3   -0.79030      1.99981     6.77318    0.01731     8.79030
    C  4    0.22196      1.99871     3.73498    0.04435     5.77804
    C  5   -0.79681      1.99952     4.75147    0.04582     6.79681
    O  6   -0.76445      1.99983     6.74885    0.01577     8.76445
    C  7    0.37444      1.99889     3.57675    0.04992     5.62556
    O  8   -0.75553      1.99980     6.73780    0.01792     8.75553
    C  9   -0.72678      1.99927     4.71003    0.01747     6.72678
    H 10    0.18598      0.00000     0.81103    0.00300     0.81402
    H 11    0.26327      0.00000     0.73459    0.00214     0.73673
    H 12    0.21881      0.00000     0.77990    0.00129     0.78119
    H 13    0.23047      0.00000     0.76693    0.00260     0.76953
    H 14    0.23380      0.00000     0.76466    0.00153     0.76620
    H 15    0.20408      0.00000     0.79392    0.00200     0.79592
 ====================================================================
 * Total * -2.00000     17.99498    51.69834    0.30668    70.00000

                                 Natural Population      
 --------------------------------------------------------
   Core                      17.99498 ( 99.9721% of  18)
   Valence                   51.69834 ( 99.4199% of  52)
   Natural Minimal Basis     69.69332 ( 99.5619% of  70)
   Natural Rydberg Basis      0.30668 (  0.4381% of  70)
 --------------------------------------------------------

    Atom No         Natural Electron Configuration
 ----------------------------------------------------------------------------
      C  1      [core]2s( 0.79)2p( 2.42)3s( 0.01)3d( 0.01)4p( 0.03)
      O  2      [core]2s( 1.72)2p( 5.08)3p( 0.01)3d( 0.01)
      O  3      [core]2s( 1.74)2p( 5.03)3p( 0.01)3d( 0.01)
      C  4      [core]2s( 0.92)2p( 2.82)4s( 0.01)3d( 0.01)4p( 0.02)
      C  5      [core]2s( 1.25)2p( 3.50)3s( 0.02)3p( 0.02)
      O  6      [core]2s( 1.74)2p( 5.01)3p( 0.01)3d( 0.01)
      C  7      [core]2s( 0.85)2p( 2.72)3s( 0.01)3d( 0.01)4p( 0.03)
      O  8      [core]2s( 1.72)2p( 5.02)3p( 0.01)3d( 0.01)
      C  9      [core]2s( 1.12)2p( 3.59)3p( 0.01)
      H 10            1s( 0.81)
      H 11            1s( 0.73)
      H 12            1s( 0.78)
      H 13            1s( 0.77)
      H 14            1s( 0.76)
      H 15            1s( 0.79)


 NATURAL BOND ORBITAL ANALYSIS:

                       Occupancies       Lewis Structure    Low   High
           Occ.    -------------------  -----------------   occ   occ
  Cycle   Thresh.   Lewis   Non-Lewis     CR  BD  3C  LP    (L)   (NL)   Dev
 =============================================================================
   1(1)    1.90    67.69339   2.30661      9  17   0   9     4      5    0.44
   2(2)    1.90    67.66527   2.33473      9  17   0   9     5      6    0.47
   3(3)    1.90    67.47238   2.52762      9  18   0   8     4      5    0.41
   4(4)    1.90    67.69339   2.30661      9  17   0   9     4      5    0.44
   5(5)    1.90    67.66527   2.33473      9  17   0   9     5      6    0.47
   6(6)    1.90    67.47238   2.52762      9  18   0   8     4      5    0.41
   7(7)    1.90    67.69339   2.30661      9  17   0   9     4      5    0.44
   8(8)    1.90    67.66527   2.33473      9  17   0   9     5      6    0.47
   9(9)    1.90    67.47238   2.52762      9  18   0   8     4      5    0.41
  10(1)    1.80    67.99716   2.00284      9  16   0  10     2      4    0.44
  11(2)    1.80    67.99041   2.00959      9  16   0  10     2      4    0.47
  12(3)    1.80    67.99716   2.00284      9  16   0  10     2      4    0.44
  13(1)    1.70    67.99716   2.00284      9  16   0  10     2      4    0.44
  14(2)    1.70    67.99041   2.00959      9  16   0  10     2      4    0.47
  15(3)    1.70    67.99716   2.00284      9  16   0  10     2      4    0.44
  16(1)    1.60    67.78091   2.21909      9  15   0  11     0      4    0.47
  17(2)    1.60    67.78091   2.21909      9  15   0  11     0      4    0.47
  18(1)    1.50    66.89165   3.10835      9  14   0  12     1      5    0.47
  19(2)    1.50    66.89165   3.10835      9  14   0  12     1      5    0.47
  20(1)    1.80    67.99716   2.00284      9  16   0  10     2      4    0.44
 -----------------------------------------------------------------------------

 Strongly delocalized structure accepted

           1 low occupancy (<1.9990e) core orbital  found on  C 4
           1 low occupancy (<1.9990e) core orbital  found on  C 7

 --------------------------------------------------------
   Core                     17.99498 ( 99.972% of  18)
   Valence Lewis            50.00218 ( 96.158% of  52)
  ==================       ============================
   Total Lewis              67.99716 ( 97.139% of  70)
  -----------------------------------------------------
   Valence non-Lewis         1.78685 (  2.553% of  70)
   Rydberg non-Lewis         0.21598 (  0.309% of  70)
  ==================       ============================
   Total non-Lewis           2.00284 (  2.861% of  70)
 --------------------------------------------------------


     (Occupancy)   Bond orbital/ Coefficients/ Hybrids
 -------------------------------------------------------------------------------
   1. (1.99559) BD ( 1) C  1- O  2       
               ( 34.25%)   0.5853* C  1 s( 31.78%)p 2.14( 68.04%)d 0.01(  0.18%)
                                        -0.0001  0.5618 -0.0463 -0.0011  0.0046
                                         0.0345  0.0253 -0.0063  0.8186  0.0555
                                        -0.0034 -0.0729 -0.0010 -0.0007 -0.0014
                                         0.0005 -0.0067 -0.0388 -0.0143
               ( 65.75%)   0.8109* O  2 s( 39.28%)p 1.54( 60.46%)d 0.01(  0.26%)
                                         0.0000  0.6265 -0.0153 -0.0056 -0.0049
                                        -0.0258 -0.0069  0.0030 -0.7755  0.0216
                                         0.0013  0.0450 -0.0028  0.0003  0.0034
                                        -0.0003 -0.0065 -0.0448 -0.0232
   2. (1.99482) BD ( 1) C  1- O  3       
               ( 35.46%)   0.5955* C  1 s( 33.53%)p 1.98( 66.31%)d 0.00(  0.15%)
                                        -0.0001  0.5777 -0.0398 -0.0048  0.0040
                                         0.6867  0.0546 -0.0076 -0.4322 -0.0068
                                        -0.0030 -0.0406  0.0051 -0.0009 -0.0334
                                        -0.0015  0.0020  0.0141 -0.0137
               ( 64.54%)   0.8033* O  3 s( 35.12%)p 1.84( 64.66%)d 0.01(  0.23%)
                                         0.0000  0.5924 -0.0154 -0.0026 -0.0043
                                        -0.7099  0.0157  0.0003  0.3671 -0.0147
                                        -0.0033 -0.0860  0.0006  0.0004 -0.0367
                                         0.0044 -0.0021  0.0219 -0.0209
   3. (1.98594) BD ( 2) C  1- O  3       
               ( 24.21%)   0.4921* C  1 s(  0.29%)p99.99( 99.42%)d 0.98(  0.29%)
                                         0.0000  0.0540 -0.0029  0.0011 -0.0005
                                         0.0447  0.0005  0.0029  0.0494 -0.0024
                                        -0.0009  0.9933 -0.0509  0.0219  0.0010
                                         0.0424 -0.0325  0.0032  0.0022
               ( 75.79%)   0.8706* O  3 s(  0.13%)p99.99( 99.70%)d 1.37(  0.17%)
                                         0.0000  0.0353 -0.0011 -0.0009 -0.0001
                                        -0.0422  0.0014 -0.0001  0.0940 -0.0002
                                         0.0002  0.9932 -0.0023  0.0020 -0.0048
                                        -0.0353  0.0209 -0.0003 -0.0036
   4. (1.97886) BD ( 1) C  1- C  4       
               ( 46.11%)   0.6790* C  1 s( 34.69%)p 1.88( 65.23%)d 0.00(  0.08%)
                                        -0.0002 -0.5863 -0.0562  0.0008  0.0043
                                         0.7194 -0.0111 -0.0171  0.3659  0.0087
                                        -0.0078 -0.0188 -0.0004  0.0005 -0.0201
                                         0.0008 -0.0014 -0.0193  0.0060
               ( 53.89%)   0.7341* C  4 s( 34.97%)p 1.86( 64.97%)d 0.00(  0.06%)
                                         0.0003 -0.5911  0.0185 -0.0006  0.0018
                                        -0.6769  0.0128  0.0025 -0.4366  0.0132
                                         0.0023  0.0211 -0.0057  0.0002 -0.0205
                                         0.0018 -0.0028 -0.0092  0.0110
   5. (1.98612) BD ( 1) C  4- O  6       
               ( 37.57%)   0.6130* C  4 s( 26.52%)p 2.77( 73.37%)d 0.00(  0.12%)
                                         0.0003 -0.5116 -0.0577  0.0058 -0.0044
                                        -0.1016 -0.0235 -0.0006  0.8463  0.0624
                                        -0.0005 -0.0479 -0.0181  0.0010  0.0053
                                        -0.0002  0.0047  0.0287  0.0176
               ( 62.43%)   0.7901* O  6 s( 33.67%)p 1.96( 66.12%)d 0.01(  0.21%)
                                        -0.0001 -0.5799  0.0199 -0.0034  0.0009
                                         0.1369 -0.0033 -0.0008 -0.7919  0.0160
                                         0.0075  0.1228 -0.0021  0.0001  0.0126
                                        -0.0022  0.0103  0.0379  0.0207
   6. (1.96617) BD ( 2) C  4- O  6       
               ( 24.14%)   0.4913* C  4 s(  1.08%)p91.23( 98.63%)d 0.26(  0.28%)
                                         0.0000 -0.1014  0.0203  0.0106  0.0018
                                         0.1155 -0.0098  0.0003  0.0079  0.0029
                                        -0.0008  0.9845 -0.0503  0.0333 -0.0042
                                         0.0080 -0.0511  0.0024  0.0123
               ( 75.86%)   0.8710* O  6 s(  0.25%)p99.99( 99.60%)d 0.56(  0.14%)
                                         0.0000  0.0505  0.0005 -0.0010  0.0002
                                         0.0901 -0.0030 -0.0007  0.1315  0.0026
                                         0.0017  0.9852 -0.0044  0.0042  0.0023
                                        -0.0058  0.0360 -0.0066 -0.0074
   7. (1.97102) BD ( 1) C  4- C  7       
               ( 49.38%)   0.7027* C  4 s( 37.48%)p 1.67( 62.44%)d 0.00(  0.08%)
                                         0.0000  0.6121 -0.0093  0.0054 -0.0021
                                        -0.7189  0.0011  0.0055  0.2921 -0.0065
                                        -0.0004  0.1469  0.0244  0.0034 -0.0154
                                        -0.0066  0.0085  0.0182 -0.0121
               ( 50.62%)   0.7115* C  7 s( 37.07%)p 1.70( 62.85%)d 0.00(  0.08%)
                                         0.0000  0.6085 -0.0205  0.0027 -0.0040
                                         0.7595 -0.0098 -0.0120 -0.2255 -0.0092
                                         0.0068 -0.0065  0.0172  0.0032 -0.0089
                                        -0.0005  0.0045  0.0226 -0.0128
   8. (1.99242) BD ( 1) C  5- H 13       
               ( 61.87%)   0.7866* C  5 s( 30.08%)p 2.32( 69.83%)d 0.00(  0.09%)
                                         0.0000  0.5480  0.0217  0.0021 -0.0002
                                        -0.6839 -0.0167  0.0021 -0.4621 -0.0230
                                        -0.0030 -0.1269 -0.0043 -0.0125  0.0235
                                         0.0090  0.0074  0.0103 -0.0123
               ( 38.13%)   0.6175* H 13 s(100.00%)
                                         1.0000  0.0051
   9. (1.98480) BD ( 1) C  5- H 14       
               ( 61.82%)   0.7862* C  5 s( 29.72%)p 2.36( 70.19%)d 0.00(  0.09%)
                                         0.0000  0.5449  0.0133 -0.0099 -0.0002
                                         0.6976  0.0222 -0.0050 -0.2861 -0.0119
                                        -0.0014 -0.3643 -0.0056 -0.0077 -0.0141
                                        -0.0210  0.0085  0.0147 -0.0034
               ( 38.18%)   0.6179* H 14 s(100.00%)
                                         1.0000  0.0037
  10. (1.99270) BD ( 1) C  5- H 15       
               ( 60.57%)   0.7782* C  5 s( 27.94%)p 2.58( 71.96%)d 0.00(  0.10%)
                                         0.0000  0.5277  0.0289  0.0031 -0.0007
                                        -0.1221  0.0067  0.0030  0.8328  0.0348
                                         0.0020 -0.0986 -0.0028 -0.0150 -0.0072
                                         0.0002 -0.0088 -0.0260 -0.0141
               ( 39.43%)   0.6280* H 15 s(100.00%)
                                         1.0000  0.0039
  11. (1.99276) BD ( 1) C  7- O  8       
               ( 36.46%)   0.6038* C  7 s( 28.98%)p 2.45( 70.89%)d 0.00(  0.13%)
                                        -0.0001  0.5365  0.0437  0.0010  0.0032
                                        -0.6013 -0.0386 -0.0060 -0.5795 -0.0410
                                        -0.0080  0.0903  0.0117  0.0041  0.0313
                                        -0.0033 -0.0027  0.0041 -0.0172
               ( 63.54%)   0.7971* O  8 s( 37.25%)p 1.68( 62.52%)d 0.01(  0.23%)
                                         0.0000  0.6102 -0.0119  0.0056 -0.0035
                                         0.6216 -0.0162 -0.0046  0.4872 -0.0171
                                        -0.0054 -0.0284 -0.0005  0.0014  0.0414
                                        -0.0046 -0.0036  0.0079 -0.0214
  12. (1.98291) BD ( 2) C  7- O  8       
               ( 25.18%)   0.5018* C  7 s(  0.73%)p99.99( 98.99%)d 0.38(  0.28%)
                                         0.0002 -0.0832  0.0193  0.0049  0.0014
                                         0.0767  0.0037  0.0001 -0.0022  0.0012
                                        -0.0042  0.9899 -0.0561  0.0301 -0.0035
                                        -0.0406 -0.0322 -0.0061  0.0092
               ( 74.82%)   0.8650* O  8 s(  0.00%)p 1.00( 99.83%)d 0.00(  0.17%)
                                         0.0000 -0.0034 -0.0002 -0.0033 -0.0005
                                         0.0695  0.0012  0.0001 -0.0261  0.0022
                                        -0.0001  0.9964 -0.0057  0.0045  0.0014
                                         0.0286  0.0290  0.0029 -0.0043
  13. (1.98938) BD ( 1) C  7- C  9       
               ( 49.26%)   0.7018* C  7 s( 33.13%)p 2.02( 66.80%)d 0.00(  0.07%)
                                        -0.0002  0.5756 -0.0070 -0.0025  0.0027
                                        -0.2289 -0.0119 -0.0002  0.7814 -0.0015
                                        -0.0012  0.0688  0.0126  0.0020 -0.0130
                                         0.0006  0.0027 -0.0192 -0.0122
               ( 50.74%)   0.7123* C  9 s( 31.67%)p 2.16( 68.26%)d 0.00(  0.07%)
                                         0.0002  0.5627 -0.0078 -0.0021 -0.0023
                                         0.2298 -0.0066 -0.0034 -0.7919 -0.0202
                                         0.0014 -0.0457  0.0058  0.0083 -0.0150
                                        -0.0015  0.0036 -0.0182 -0.0132
  14. (1.98113) BD ( 1) C  9- H 10       
               ( 59.76%)   0.7730* C  9 s( 19.59%)p 4.10( 80.33%)d 0.00(  0.07%)
                                         0.0001 -0.4425 -0.0110 -0.0053 -0.0013
                                         0.6299 -0.0090 -0.0001 -0.1667 -0.0031
                                        -0.0051  0.6152 -0.0123  0.0010  0.0080
                                        -0.0227  0.0041 -0.0118 -0.0034
               ( 40.24%)   0.6344* H 10 s(100.00%)
                                        -1.0000 -0.0069
  15. (1.98609) BD ( 1) C  9- H 11       
               ( 63.81%)   0.7988* C  9 s( 24.40%)p 3.09( 75.51%)d 0.00(  0.09%)
                                        -0.0002  0.4939  0.0078 -0.0004 -0.0001
                                         0.6527 -0.0006 -0.0030  0.5494  0.0054
                                         0.0030 -0.1644  0.0082  0.0028  0.0229
                                        -0.0090 -0.0050  0.0086 -0.0144
               ( 36.19%)   0.6016* H 11 s(100.00%)
                                         1.0000  0.0066
  16. (1.98095) BD ( 1) C  9- H 12       
               ( 60.98%)   0.7809* C  9 s( 24.33%)p 3.11( 75.59%)d 0.00(  0.08%)
                                         0.0001 -0.4932  0.0033  0.0061 -0.0011
                                         0.3510 -0.0016 -0.0026 -0.2041 -0.0044
                                        -0.0046 -0.7687  0.0016 -0.0039  0.0076
                                         0.0188 -0.0109 -0.0026 -0.0171
               ( 39.02%)   0.6247* H 12 s(100.00%)
                                        -1.0000 -0.0025
  17. (1.99934) CR ( 1) C  1             s(100.00%)p 0.00(  0.00%)
                                         1.0000  0.0000  0.0000  0.0000  0.0000
                                         0.0002  0.0000  0.0000  0.0001  0.0000
                                         0.0000  0.0000  0.0000  0.0000  0.0000
                                         0.0000  0.0000  0.0000  0.0000
  18. (1.99979) CR ( 1) O  2             s(100.00%)p 0.00(  0.00%)
                                         1.0000  0.0003  0.0000  0.0000  0.0000
                                         0.0000  0.0000  0.0000  0.0003  0.0000
                                         0.0000  0.0000  0.0000  0.0000  0.0000
                                         0.0000  0.0000  0.0000  0.0000
  19. (1.99981) CR ( 1) O  3             s(100.00%)p 0.00(  0.00%)
                                         1.0000  0.0003  0.0000  0.0000  0.0000
                                         0.0002  0.0000  0.0000 -0.0001  0.0000
                                         0.0000  0.0000  0.0000  0.0000  0.0000
                                         0.0000  0.0000  0.0000  0.0000
  20. (1.99872) CR ( 1) C  4             s(100.00%)p 0.00(  0.00%)
                                         1.0000  0.0004  0.0000  0.0000  0.0000
                                         0.0002  0.0000  0.0000 -0.0001  0.0000
                                         0.0000  0.0000  0.0000  0.0000  0.0000
                                         0.0000  0.0000  0.0000  0.0000
  21. (1.99952) CR ( 1) C  5             s(100.00%)
                                         1.0000  0.0000  0.0000  0.0000  0.0000
                                         0.0000  0.0000  0.0000  0.0000  0.0000
                                         0.0000  0.0000  0.0000  0.0000  0.0000
                                         0.0000  0.0000  0.0000  0.0000
  22. (1.99983) CR ( 1) O  6             s(100.00%)p 0.00(  0.00%)
                                         1.0000  0.0002  0.0000  0.0000  0.0000
                                         0.0000  0.0000  0.0000 -0.0003  0.0000
                                         0.0000  0.0000  0.0000  0.0000  0.0000
                                         0.0000  0.0000  0.0000  0.0000
  23. (1.99889) CR ( 1) C  7             s(100.00%)p 0.00(  0.00%)
                                         1.0000  0.0002  0.0000  0.0000  0.0000
                                        -0.0001  0.0000  0.0000  0.0001  0.0000
                                         0.0000 -0.0001  0.0000  0.0000  0.0000
                                         0.0000  0.0000  0.0000  0.0000
  24. (1.99980) CR ( 1) O  8             s(100.00%)p 0.00(  0.00%)
                                         1.0000  0.0003  0.0000  0.0000  0.0000
                                        -0.0003  0.0000  0.0000 -0.0001  0.0000
                                         0.0000  0.0000  0.0000  0.0000  0.0000
                                         0.0000  0.0000  0.0000  0.0000
  25. (1.99928) CR ( 1) C  9             s(100.00%)p 0.00(  0.00%)
                                         1.0000  0.0001  0.0000  0.0000  0.0000
                                         0.0000  0.0000  0.0000  0.0003  0.0000
                                         0.0000  0.0000  0.0000  0.0000  0.0000
                                         0.0000  0.0000  0.0000  0.0000
  26. (1.97695) LP ( 1) O  2             s( 60.23%)p 0.66( 39.74%)d 0.00(  0.03%)
                                        -0.0004  0.7760  0.0098  0.0022  0.0027
                                         0.1097  0.0054 -0.0038  0.6187 -0.0057
                                        -0.0047 -0.0492  0.0017 -0.0001 -0.0051
                                         0.0005  0.0027  0.0147  0.0098
  27. (1.89741) LP ( 2) O  2             s(  0.48%)p99.99( 99.38%)d 0.29(  0.14%)
                                         0.0000  0.0694 -0.0043  0.0023 -0.0013
                                        -0.9928 -0.0121 -0.0048  0.0880 -0.0018
                                         0.0018 -0.0161 -0.0013  0.0004  0.0368
                                        -0.0033  0.0008  0.0063 -0.0009
  28. (1.60649) LP ( 3) O  2             s(  0.01%)p99.99( 99.80%)d14.20(  0.19%)
                                         0.0000  0.0111  0.0024 -0.0016  0.0005
                                        -0.0095 -0.0015  0.0017  0.0671 -0.0009
                                         0.0011  0.9967  0.0027 -0.0004 -0.0001
                                        -0.0051 -0.0424  0.0022  0.0061
  29. (1.98116) LP ( 1) O  3             s( 64.27%)p 0.56( 35.70%)d 0.00(  0.02%)
                                        -0.0004  0.8017  0.0067  0.0006  0.0022
                                         0.4838 -0.0016  0.0030 -0.3496  0.0068
                                         0.0002  0.0251  0.0000 -0.0002  0.0114
                                        -0.0008  0.0009 -0.0030  0.0086
  30. (1.89343) LP ( 2) O  3             s(  0.49%)p99.99( 99.38%)d 0.27(  0.13%)
                                         0.0000  0.0690  0.0104  0.0003 -0.0006
                                         0.5074  0.0034 -0.0013  0.8559  0.0078
                                        -0.0016 -0.0619  0.0000  0.0002 -0.0172
                                         0.0014 -0.0020 -0.0318 -0.0014
  31. (1.09760) LP ( 1) C  5             s( 12.97%)p 6.71( 87.01%)d 0.00(  0.02%)
                                         0.0000  0.3495 -0.0863  0.0065  0.0019
                                         0.1681 -0.0281  0.0060 -0.0858 -0.0064
                                        -0.0148  0.9086 -0.0883 -0.0044 -0.0007
                                         0.0030  0.0027  0.0026  0.0144
  32. (1.98446) LP ( 1) O  6             s( 65.77%)p 0.52( 34.21%)d 0.00(  0.02%)
                                        -0.0003  0.8110  0.0085 -0.0012  0.0004
                                         0.0241 -0.0023  0.0004 -0.5833  0.0054
                                        -0.0015  0.0341 -0.0011  0.0006  0.0014
                                         0.0004  0.0018  0.0101  0.0088
  33. (1.91477) LP ( 2) O  6             s(  0.32%)p99.99( 99.57%)d 0.35(  0.11%)
                                         0.0000  0.0562 -0.0006 -0.0010  0.0007
                                         0.9856  0.0059 -0.0006  0.1125  0.0024
                                         0.0006 -0.1080 -0.0022 -0.0009  0.0309
                                        -0.0040 -0.0038 -0.0103  0.0010
  34. (1.97843) LP ( 1) O  8             s( 62.38%)p 0.60( 37.59%)d 0.00(  0.03%)
                                        -0.0004  0.7898  0.0048 -0.0030  0.0018
                                        -0.4328  0.0029 -0.0003 -0.4337  0.0093
                                        -0.0001  0.0215 -0.0001  0.0001 -0.0125
                                         0.0012  0.0011  0.0008  0.0096
  35. (1.90979) LP ( 2) O  8             s(  0.35%)p99.99( 99.53%)d 0.34(  0.12%)
                                        -0.0001  0.0589  0.0079  0.0027 -0.0008
                                        -0.6472 -0.0095 -0.0013  0.7562  0.0098
                                        -0.0006  0.0652  0.0011 -0.0006  0.0034
                                         0.0037 -0.0006 -0.0341 -0.0027
  36. (0.02130) RY*( 1) C  1             s( 10.29%)p 8.24( 84.76%)d 0.48(  4.95%)
                                         0.0000  0.0235  0.3187  0.0080  0.0269
                                         0.0294  0.0589  0.0940  0.0711 -0.9076
                                         0.0030 -0.0023  0.0746 -0.0063  0.0736
                                        -0.0200  0.0421  0.2047  0.0072
  37. (0.01684) RY*( 2) C  1             s( 30.16%)p 1.95( 58.74%)d 0.37( 11.09%)
                                         0.0000  0.0446  0.5271  0.1364  0.0569
                                         0.0730 -0.7107  0.1004  0.0128  0.2161
                                         0.1381 -0.0045 -0.0271 -0.0179  0.2900
                                        -0.0240  0.0155  0.1603  0.0177
  38. (0.00615) RY*( 3) C  1             s( 32.93%)p 0.98( 32.42%)d 1.05( 34.65%)
                                         0.0000 -0.0184 -0.1099  0.5615 -0.0399
                                         0.0066  0.4041  0.2915  0.0073  0.1385
                                         0.2275  0.0123 -0.0079 -0.0685  0.4240
                                        -0.1504  0.2262  0.2987  0.0606
  39. (0.00591) RY*( 4) C  1             s(  2.92%)p 3.90( 11.39%)d29.32( 85.69%)
                                         0.0000  0.0010  0.1372 -0.0992  0.0237
                                        -0.0004 -0.0104 -0.1828  0.0050  0.0407
                                        -0.0032  0.0610  0.1957 -0.1914 -0.1774
                                        -0.4809  0.7456 -0.1561 -0.1178
  40. (0.00299) RY*( 5) C  1             s( 13.25%)p 1.25( 16.51%)d 5.30( 70.23%)
                                         0.0000 -0.0157  0.3565 -0.0582 -0.0422
                                        -0.0014  0.2514 -0.1314  0.0360  0.2225
                                         0.1836 -0.0057 -0.0074  0.0071 -0.5433
                                         0.0664 -0.0623  0.6316  0.0001
  41. (0.00200) RY*( 6) C  1             s( 36.98%)p 0.84( 30.99%)d 0.87( 32.03%)
                                         0.0000 -0.0148  0.5989  0.0286 -0.1003
                                         0.0309  0.4309 -0.1247 -0.0019  0.1521
                                        -0.0480  0.0111  0.2825 -0.0496  0.1921
                                        -0.0586 -0.2990 -0.4336  0.0500
  42. (0.00092) RY*( 7) C  1             s(  6.57%)p10.13( 66.49%)d 4.10( 26.94%)
                                         0.0000 -0.0012  0.2395  0.0821 -0.0396
                                         0.0102  0.1507 -0.2321 -0.0015 -0.0276
                                         0.0225 -0.0432 -0.7577  0.1050  0.0481
                                         0.3349  0.3336 -0.2066  0.0317
  43. (0.00036) RY*( 8) C  1             s( 47.56%)p 0.83( 39.66%)d 0.27( 12.77%)
                                         0.0000  0.0142 -0.0744  0.6624 -0.1763
                                        -0.0148 -0.1811 -0.4708 -0.0036 -0.1134
                                        -0.2855  0.0033 -0.0437 -0.2137 -0.2241
                                        -0.1730 -0.2018 -0.0037  0.0828
  44. (0.00022) RY*( 9) C  1             s( 16.50%)p 3.61( 59.64%)d 1.45( 23.86%)
                                         0.0000 -0.0057 -0.0671 -0.2392  0.3213
                                        -0.0030  0.0624 -0.1981 -0.0032 -0.0382
                                         0.3075  0.0006 -0.3458 -0.5811  0.1738
                                        -0.3276 -0.3038  0.0519 -0.0780
  45. (0.00008) RY*(10) C  1             s(  2.59%)p27.64( 71.69%)d 9.91( 25.72%)
  46. (0.00007) RY*(11) C  1             s( 36.38%)p 0.79( 28.79%)d 0.96( 34.82%)
  47. (0.00002) RY*(12) C  1             s(  6.68%)p 7.59( 50.65%)d 6.39( 42.67%)
  48. (0.00003) RY*(13) C  1             s( 43.25%)p 1.06( 45.71%)d 0.26( 11.03%)
  49. (0.00001) RY*(14) C  1             s( 13.62%)p 0.26(  3.54%)d 6.08( 82.84%)
  50. (0.00499) RY*( 1) O  2             s( 24.81%)p 3.00( 74.42%)d 0.03(  0.78%)
                                         0.0000  0.0024  0.4960 -0.0331 -0.0314
                                        -0.0118  0.8562 -0.0013 -0.0173  0.0381
                                        -0.0690  0.0011  0.0654 -0.0126  0.0532
                                        -0.0112  0.0055  0.0682 -0.0103
  51. (0.00232) RY*( 2) O  2             s(  0.59%)p99.99( 97.45%)d 3.29(  1.95%)
                                         0.0000  0.0010  0.0503  0.0540 -0.0223
                                         0.0011  0.0520  0.0076 -0.0013 -0.1351
                                         0.0048 -0.0016 -0.9746 -0.0603  0.0187
                                         0.0855 -0.1077  0.0115  0.0120
  52. (0.00113) RY*( 3) O  2             s( 55.86%)p 0.77( 42.97%)d 0.02(  1.17%)
                                         0.0000 -0.0026  0.7246 -0.1662 -0.0765
                                        -0.0028 -0.4536  0.0801 -0.0015  0.4392
                                        -0.1456 -0.0022 -0.0573  0.0118 -0.0963
                                        -0.0037 -0.0020  0.0488  0.0052
  53. (0.00056) RY*( 4) O  2             s( 38.67%)p 1.32( 51.11%)d 0.26( 10.22%)
                                         0.0000  0.0045  0.4137  0.4360 -0.1595
                                         0.0122 -0.1852  0.0671 -0.0086 -0.5117
                                         0.4443 -0.0008  0.1083  0.0329  0.2781
                                        -0.0624  0.0028 -0.1398 -0.0371
  54. (0.00013) RY*( 5) O  2             s( 33.14%)p 1.41( 46.65%)d 0.61( 20.22%)
                                         0.0000 -0.0018 -0.1077  0.5640  0.0412
                                         0.0082  0.0390  0.5075  0.0033  0.3100
                                        -0.3330  0.0013 -0.0076 -0.0158  0.3056
                                         0.0215  0.0462 -0.1000  0.3101
  55. (0.00010) RY*( 6) O  2             s(  5.34%)p15.93( 85.04%)d 1.80(  9.62%)
                                         0.0000  0.0061  0.0576 -0.1484  0.1673
                                        -0.0040 -0.0289  0.2335 -0.0166 -0.3296
                                        -0.2303  0.0101 -0.0418  0.7945 -0.0766
                                        -0.0248  0.2496  0.1357  0.0948
  56. (0.00007) RY*( 7) O  2             s(  4.10%)p14.96( 61.35%)d 8.42( 34.55%)
  57. (0.00007) RY*( 8) O  2             s( 31.75%)p 1.68( 53.48%)d 0.47( 14.77%)
  58. (0.00003) RY*( 9) O  2             s( 17.47%)p 0.21(  3.74%)d 4.51( 78.79%)
  59. (0.00001) RY*(10) O  2             s( 84.28%)p 0.12( 10.33%)d 0.06(  5.39%)
  60. (0.00001) RY*(11) O  2             s(  1.88%)p 6.33( 11.92%)d45.75( 86.20%)
  61. (0.00001) RY*(12) O  2             s(  1.14%)p31.92( 36.33%)d54.94( 62.53%)
  62. (0.00001) RY*(13) O  2             s(  0.96%)p18.00( 17.21%)d85.61( 81.84%)
  63. (0.00000) RY*(14) O  2             s(  0.02%)p99.99(  8.62%)d99.99( 91.36%)
  64. (0.00347) RY*( 1) O  3             s( 22.35%)p 3.46( 77.38%)d 0.01(  0.27%)
                                         0.0000  0.0003  0.4668 -0.0559 -0.0499
                                        -0.0185  0.4456 -0.0259 -0.0021  0.7563
                                        -0.0355 -0.0002  0.0298 -0.0041  0.0397
                                        -0.0018 -0.0024  0.0152  0.0296
  65. (0.00218) RY*( 2) O  3             s(  0.83%)p99.99( 97.68%)d 1.79(  1.49%)
                                         0.0000  0.0007  0.0782  0.0459 -0.0100
                                        -0.0022 -0.0191 -0.0142  0.0001  0.0041
                                        -0.0171 -0.0061 -0.9870  0.0413  0.0056
                                        -0.0365  0.1154 -0.0039 -0.0140
  66. (0.00081) RY*( 3) O  3             s( 52.51%)p 0.86( 45.26%)d 0.04(  2.23%)
                                         0.0000  0.0062  0.6624  0.2884 -0.0553
                                        -0.0147 -0.6139 -0.2100  0.0042 -0.0310
                                         0.1569  0.0009  0.0750 -0.0146 -0.1054
                                         0.0077 -0.0079  0.0917  0.0518
  67. (0.00056) RY*( 4) O  3             s( 44.51%)p 0.96( 42.92%)d 0.28( 12.57%)
                                         0.0000 -0.0010  0.5232 -0.4132  0.0256
                                        -0.0080  0.2554  0.0970 -0.0120 -0.5068
                                        -0.3117  0.0017  0.0169  0.0089 -0.0821
                                         0.0292 -0.0087 -0.3320  0.0881
  68. (0.00014) RY*( 5) O  3             s( 19.80%)p 3.61( 71.49%)d 0.44(  8.71%)
                                         0.0000  0.0035  0.0639  0.4401  0.0154
                                        -0.0116 -0.1246  0.6640  0.0117  0.0480
                                        -0.5051  0.0022  0.0233  0.0141  0.2861
                                         0.0217 -0.0383  0.0020  0.0574
  69. (0.00008) RY*( 6) O  3             s( 16.56%)p 2.06( 34.14%)d 2.98( 49.30%)
  70. (0.00004) RY*( 7) O  3             s( 21.95%)p 2.90( 63.60%)d 0.66( 14.45%)
  71. (0.00002) RY*( 8) O  3             s(  0.36%)p99.99( 88.17%)d32.22( 11.47%)
  72. (0.00000) RY*( 9) O  3             s( 89.97%)p 0.09(  7.74%)d 0.03(  2.29%)
  73. (0.00001) RY*(10) O  3             s(  8.68%)p 3.69( 31.98%)d 6.84( 59.34%)
  74. (0.00001) RY*(11) O  3             s(  0.27%)p 6.00(  1.63%)d99.99( 98.10%)
  75. (0.00001) RY*(12) O  3             s(  0.08%)p24.67(  1.99%)d99.99( 97.93%)
  76. (0.00000) RY*(13) O  3             s( 22.10%)p 0.37(  8.19%)d 3.15( 69.71%)
  77. (0.00001) RY*(14) O  3             s(  0.02%)p99.99( 28.36%)d99.99( 71.61%)
  78. (0.01515) RY*( 1) C  4             s( 13.70%)p 6.12( 83.84%)d 0.18(  2.46%)
                                         0.0000 -0.0412  0.3663  0.0322  0.0060
                                        -0.0102  0.1905 -0.0094  0.0660 -0.8816
                                        -0.0892 -0.0185  0.0011  0.1098  0.0098
                                         0.0631 -0.1254  0.0327  0.0612
  79. (0.00902) RY*( 2) C  4             s(  5.97%)p 7.76( 46.37%)d 7.98( 47.66%)
                                         0.0000  0.0373  0.2130 -0.1133 -0.0114
                                        -0.0110  0.1563  0.0338  0.0030  0.2959
                                        -0.0899 -0.0682 -0.4250  0.3963 -0.0346
                                         0.2832 -0.5822  0.0361  0.2343
  80. (0.00488) RY*( 3) C  4             s(  0.41%)p99.99( 64.22%)d85.31( 35.36%)
                                         0.0000  0.0014  0.0410  0.0488 -0.0090
                                         0.0072 -0.7688  0.1556 -0.0155 -0.1063
                                        -0.0958 -0.0187  0.0198  0.0734 -0.5266
                                         0.1220 -0.0621  0.2309  0.0653
  81. (0.00341) RY*( 4) C  4             s( 41.61%)p 0.73( 30.30%)d 0.68( 28.09%)
                                         0.0000 -0.0105  0.6378  0.0009 -0.0960
                                         0.0243  0.3280  0.0402  0.0368  0.2939
                                        -0.0294  0.0122  0.3129 -0.0813 -0.4895
                                        -0.0291  0.1759  0.0439 -0.0871
  82. (0.00216) RY*( 5) C  4             s( 28.52%)p 1.13( 32.08%)d 1.38( 39.40%)
                                         0.0000 -0.0026  0.4833  0.2213 -0.0515
                                        -0.0135 -0.3780 -0.0896  0.0033  0.1718
                                        -0.3134 -0.0053  0.1919  0.0719  0.6176
                                        -0.1033 -0.0150  0.0390 -0.0098
  83. (0.00090) RY*( 6) C  4             s( 21.56%)p 2.97( 64.03%)d 0.67( 14.41%)
                                         0.0000  0.0094  0.3676 -0.2757  0.0664
                                        -0.0139 -0.2725 -0.3570  0.0258 -0.0207
                                         0.4465 -0.0140 -0.4676 -0.1380 -0.0173
                                        -0.1754  0.1295 -0.3004 -0.0775
  84. (0.00078) RY*( 7) C  4             s( 25.35%)p 1.99( 50.57%)d 0.95( 24.08%)
                                         0.0000  0.0131  0.1206  0.4861 -0.0505
                                         0.0001  0.0989  0.4013 -0.0139  0.0212
                                         0.1716 -0.0126 -0.5246 -0.1714  0.0895
                                        -0.0218  0.2809  0.3886  0.0487
  85. (0.00051) RY*( 8) C  4             s( 16.51%)p 2.45( 40.49%)d 2.60( 43.00%)
                                         0.0000 -0.0036  0.0573  0.3994  0.0476
                                        -0.0018 -0.0816  0.2130  0.0176  0.0092
                                         0.5155 -0.0025  0.2683  0.1214  0.0619
                                         0.4499 -0.0619 -0.4687  0.0178
  86. (0.00043) RY*( 9) C  4             s( 32.19%)p 0.98( 31.48%)d 1.13( 36.33%)
                                         0.0000  0.0062 -0.0961  0.5447  0.1260
                                         0.0068  0.0590 -0.4470 -0.0099  0.0203
                                         0.1337 -0.0171  0.0578  0.2991 -0.2118
                                        -0.4887 -0.1218  0.0380  0.2517
  87. (0.00032) RY*(10) C  4             s(  1.73%)p19.60( 33.84%)d37.32( 64.44%)
                                         0.0000 -0.0014  0.0247  0.1248  0.0330
                                        -0.0032 -0.0250  0.4085  0.0182 -0.0136
                                        -0.1441 -0.0123 -0.0610 -0.3817 -0.0911
                                        -0.4605 -0.5029 -0.3826 -0.1570
  88. (0.00016) RY*(11) C  4             s( 13.20%)p 3.95( 52.08%)d 2.63( 34.73%)
                                         0.0000  0.0010 -0.0510  0.3447 -0.1028
                                        -0.0044  0.0302 -0.5086 -0.0013  0.0031
                                        -0.1871 -0.0034 -0.1218 -0.4597 -0.0960
                                         0.4179 -0.2207  0.0511 -0.3348
  89. (0.00014) RY*(12) C  4             s( 17.37%)p 2.19( 38.07%)d 2.57( 44.56%)
                                         0.0000  0.0084 -0.0157  0.1532  0.3871
                                        -0.0024  0.0249  0.0186  0.0117  0.0151
                                        -0.5396  0.0006 -0.2621  0.1396 -0.1425
                                         0.1264  0.4121 -0.4838  0.0737
  90. (0.00003) RY*(13) C  4             s( 81.34%)p 0.07(  5.94%)d 0.16( 12.72%)
  91. (0.00003) RY*(14) C  4             s(  0.50%)p54.91( 27.28%)d99.99( 72.22%)
  92. (0.01424) RY*( 1) C  5             s( 44.44%)p 1.23( 54.53%)d 0.02(  1.03%)
                                         0.0000  0.0228  0.6658  0.0052  0.0224
                                         0.0207  0.2532 -0.0682 -0.0231  0.0240
                                         0.1000  0.1207  0.6588 -0.1284 -0.0189
                                         0.0268 -0.0546 -0.0109  0.0780
  93. (0.00200) RY*( 2) C  5             s( 52.00%)p 0.87( 45.19%)d 0.05(  2.81%)
                                         0.0000 -0.0218  0.4963  0.5226 -0.0030
                                         0.0154 -0.1767 -0.1097 -0.0186  0.3194
                                         0.2013 -0.0012 -0.5028 -0.1127  0.0512
                                         0.1163  0.0972 -0.0055 -0.0500
  94. (0.00121) RY*( 3) C  5             s(  5.27%)p17.43( 91.91%)d 0.53(  2.82%)
                                         0.0000 -0.0025  0.2022  0.1031 -0.0347
                                         0.0166 -0.5675 -0.2689  0.0373 -0.7147
                                        -0.0922  0.0005  0.0366  0.0488  0.0719
                                        -0.1149  0.0059  0.0696  0.0702
  95. (0.00084) RY*( 4) C  5             s(  8.44%)p 9.29( 78.40%)d 1.56( 13.17%)
                                         0.0000 -0.0112  0.0103  0.2898 -0.0120
                                        -0.0050  0.6115  0.0881  0.0145 -0.5379
                                        -0.1679 -0.0069 -0.2428 -0.1600 -0.0119
                                         0.3302 -0.1383 -0.0385 -0.0431
  96. (0.00039) RY*( 5) C  5             s(  3.59%)p18.42( 66.10%)d 8.45( 30.31%)
                                         0.0000 -0.0120  0.1700  0.0759  0.0330
                                        -0.0046 -0.0716  0.6783  0.0039 -0.0066
                                        -0.3535 -0.0053 -0.0868 -0.2513 -0.0002
                                        -0.4181  0.0539  0.0916  0.3421
  97. (0.00016) RY*( 6) C  5             s( 11.99%)p 3.41( 40.85%)d 3.93( 47.16%)
                                         0.0000 -0.0009 -0.2225  0.2653 -0.0005
                                         0.0099 -0.2338  0.2021 -0.0123 -0.0124
                                         0.2916 -0.0046  0.1997 -0.4332 -0.0769
                                        -0.0777 -0.5755 -0.0539 -0.3543
  98. (0.00013) RY*( 7) C  5             s( 48.86%)p 0.71( 34.64%)d 0.34( 16.49%)
                                         0.0000  0.0203 -0.2118  0.6645 -0.0416
                                        -0.0142  0.1486 -0.1341 -0.0044  0.0857
                                        -0.1157 -0.0019  0.2351  0.4797 -0.1324
                                        -0.3501 -0.0789  0.0066  0.1363
  99. (0.00007) RY*( 8) C  5             s(  1.77%)p37.30( 66.06%)d18.17( 32.17%)
 100. (0.00007) RY*( 9) C  5             s(  8.24%)p 2.03( 16.68%)d 9.11( 75.08%)
 101. (0.00003) RY*(10) C  5             s(  4.94%)p13.15( 64.91%)d 6.11( 30.15%)
 102. (0.00002) RY*(11) C  5             s(  3.97%)p 1.01(  4.00%)d23.17( 92.03%)
 103. (0.00001) RY*(12) C  5             s(  8.42%)p 2.12( 17.81%)d 8.76( 73.77%)
 104. (0.00001) RY*(13) C  5             s(  1.83%)p10.10( 18.49%)d43.52( 79.68%)
 105. (0.00000) RY*(14) C  5             s( 95.55%)p 0.02(  1.44%)d 0.03(  3.01%)
 106. (0.00303) RY*( 1) O  6             s(  1.71%)p57.02( 97.24%)d 0.62(  1.05%)
                                         0.0000 -0.0006  0.1051  0.0741 -0.0227
                                        -0.0020  0.3614 -0.0163 -0.0014 -0.1173
                                        -0.0077 -0.0050 -0.9098  0.0057 -0.0643
                                        -0.0296  0.0655 -0.0120 -0.0328
 107. (0.00264) RY*( 2) O  6             s(  0.23%)p99.99( 99.15%)d 2.69(  0.62%)
                                         0.0000 -0.0005 -0.0094  0.0417 -0.0219
                                         0.0023 -0.9094  0.1133  0.0014 -0.1881
                                         0.0066 -0.0047 -0.3403 -0.0196  0.0765
                                         0.0032  0.0150 -0.0047 -0.0094
 108. (0.00075) RY*( 3) O  6             s( 84.37%)p 0.14( 11.40%)d 0.05(  4.24%)
                                         0.0000  0.0053  0.9117  0.1113 -0.0069
                                        -0.0042 -0.0689 -0.0911  0.0210  0.1610
                                         0.2630 -0.0036  0.0610 -0.0402  0.0076
                                         0.0204  0.0061 -0.1345  0.1542
 109. (0.00033) RY*( 4) O  6             s( 32.27%)p 2.02( 65.34%)d 0.07(  2.40%)
                                         0.0000 -0.0023  0.1036  0.5583 -0.0149
                                         0.0038  0.0928 -0.0674 -0.0062 -0.7322
                                        -0.1775  0.0022  0.1918  0.1890  0.0273
                                        -0.0066  0.0735  0.0880  0.1002
 110. (0.00021) RY*( 5) O  6             s( 29.79%)p 2.15( 63.91%)d 0.21(  6.30%)
                                         0.0000 -0.0025 -0.2500  0.4116  0.2568
                                        -0.0027 -0.0425 -0.5561 -0.0134  0.0736
                                         0.3038  0.0039 -0.0267 -0.4789  0.0440
                                        -0.0039 -0.0719 -0.2286 -0.0607
 111. (0.00013) RY*( 6) O  6             s(  4.20%)p19.23( 80.84%)d 3.56( 14.96%)
                                         0.0000 -0.0018 -0.0977  0.1690  0.0627
                                         0.0103  0.0806  0.6979 -0.0078 -0.1297
                                         0.4470  0.0037  0.0540 -0.3084 -0.3436
                                        -0.0748 -0.0285 -0.1217  0.1015
 112. (0.00011) RY*( 7) O  6             s( 15.39%)p 4.75( 73.09%)d 0.75( 11.52%)
                                         0.0000 -0.0035 -0.1320 -0.0853  0.3595
                                         0.0042 -0.0338 -0.1259 -0.0116 -0.0483
                                         0.4337 -0.0017 -0.0264  0.7229 -0.1756
                                         0.0730 -0.0468 -0.2741  0.0414
 113. (0.00003) RY*( 8) O  6             s( 34.95%)p 1.16( 40.72%)d 0.70( 24.33%)
 114. (0.00003) RY*( 9) O  6             s( 25.02%)p 0.35(  8.86%)d 2.64( 66.12%)
 115. (0.00001) RY*(10) O  6             s( 48.13%)p 0.22( 10.61%)d 0.86( 41.26%)
 116. (0.00002) RY*(11) O  6             s(  1.85%)p 0.96(  1.79%)d51.99( 96.36%)
 117. (0.00000) RY*(12) O  6             s(  1.78%)p 1.76(  3.13%)d53.29( 95.08%)
 118. (0.00001) RY*(13) O  6             s( 10.10%)p 4.34( 43.83%)d 4.56( 46.07%)
 119. (0.00001) RY*(14) O  6             s( 10.18%)p 0.06(  0.60%)d 8.76( 89.21%)
 120. (0.01599) RY*( 1) C  7             s( 13.71%)p 6.20( 85.03%)d 0.09(  1.27%)
                                         0.0000 -0.0421  0.3659 -0.0025 -0.0380
                                         0.0378 -0.6317 -0.0767  0.0340 -0.6550
                                        -0.0805 -0.0158  0.0303  0.0776 -0.0494
                                        -0.0645 -0.0285 -0.0519  0.0506
 121. (0.00999) RY*( 2) C  7             s(  2.70%)p29.36( 79.35%)d 6.64( 17.95%)
                                         0.0000 -0.0117 -0.0691  0.1487  0.0018
                                        -0.0102  0.5231 -0.2425  0.0140 -0.6099
                                         0.1747  0.0293  0.1605 -0.1778  0.0031
                                         0.1863  0.1222  0.3428 -0.1108
 122. (0.00766) RY*( 3) C  7             s(  3.82%)p14.13( 53.98%)d11.04( 42.20%)
                                         0.0000 -0.0245 -0.1321  0.1415 -0.0113
                                         0.0030 -0.3844  0.1304 -0.0045  0.1537
                                         0.1092  0.0687  0.3761 -0.4397  0.0282
                                         0.5280  0.2795 -0.0677 -0.2442
 123. (0.00418) RY*( 4) C  7             s( 10.28%)p 4.49( 46.15%)d 4.24( 43.57%)
                                         0.0000  0.0004 -0.0536  0.3159  0.0120
                                        -0.0180 -0.3417 -0.2305  0.0140  0.2240
                                         0.3477 -0.0167 -0.3397 -0.0660 -0.0198
                                        -0.1041 -0.0728  0.6470  0.0230
 124. (0.00215) RY*( 5) C  7             s(  3.82%)p20.16( 76.93%)d 5.05( 19.26%)
                                         0.0000  0.0213  0.1212  0.1453  0.0438
                                         0.0144  0.1018  0.2736 -0.0008 -0.1607
                                         0.0635 -0.0284 -0.7437 -0.3164  0.0770
                                         0.2691 -0.1337 -0.2763 -0.1415
 125. (0.00199) RY*( 6) C  7             s( 75.62%)p 0.28( 21.27%)d 0.04(  3.12%)
                                         0.0000  0.0051  0.8687  0.0372  0.0104
                                         0.0217  0.1965 -0.2072  0.0134  0.3013
                                        -0.0961 -0.0029  0.0856 -0.1520 -0.0704
                                         0.1165  0.0707  0.0857 -0.0169
 126. (0.00090) RY*( 7) C  7             s( 40.15%)p 1.04( 41.76%)d 0.45( 18.08%)
                                         0.0000 -0.0012  0.0474  0.6301 -0.0479
                                         0.0105  0.0498  0.4012  0.0163 -0.0201
                                        -0.4551 -0.0052  0.1431  0.1606  0.3597
                                        -0.0204 -0.0875  0.2060  0.0311
 127. (0.00071) RY*( 8) C  7             s(  2.32%)p 7.22( 16.78%)d34.83( 80.90%)
                                         0.0000 -0.0061  0.1130 -0.1020  0.0045
                                         0.0222 -0.0075 -0.0592  0.0211 -0.0032
                                         0.3664 -0.0005  0.0797 -0.1506  0.8224
                                        -0.3145  0.1090 -0.1481 -0.0035
 128. (0.00041) RY*( 9) C  7             s( 10.24%)p 1.61( 16.49%)d 7.15( 73.26%)
                                         0.0000  0.0090 -0.0084  0.3198  0.0008
                                        -0.0076  0.0502  0.1472 -0.0144 -0.0328
                                         0.0395 -0.0006 -0.0037 -0.3712 -0.3424
                                        -0.5604  0.4796 -0.1812  0.1962
 129. (0.00031) RY*(10) C  7             s(  4.49%)p15.48( 69.53%)d 5.79( 25.98%)
                                         0.0000  0.0094  0.1796  0.0189  0.1104
                                        -0.0005  0.0550  0.4499 -0.0021 -0.0304
                                         0.5245  0.0028  0.0233  0.4618 -0.0734
                                         0.2531  0.2810  0.0392  0.3315
 130. (0.00018) RY*(11) C  7             s( 34.61%)p 0.98( 33.83%)d 0.91( 31.56%)
                                         0.0000 -0.0052 -0.0106  0.5383 -0.2371
                                        -0.0021  0.0323 -0.3735 -0.0107  0.0583
                                         0.2977 -0.0118  0.0850  0.3135 -0.0965
                                         0.0272 -0.1668 -0.4894 -0.1955
 131. (0.00006) RY*(12) C  7             s( 69.04%)p 0.21( 14.27%)d 0.24( 16.68%)
 132. (0.00003) RY*(13) C  7             s(  9.05%)p 4.02( 36.43%)d 6.02( 54.52%)
 133. (0.00002) RY*(14) C  7             s( 20.22%)p 0.43(  8.69%)d 3.52( 71.09%)
 134. (0.00369) RY*( 1) O  8             s(  6.96%)p13.19( 91.78%)d 0.18(  1.26%)
                                         0.0000 -0.0029  0.2626  0.0107 -0.0229
                                         0.0108 -0.5923  0.0544 -0.0035  0.6439
                                        -0.0600 -0.0058 -0.3805  0.0284  0.0061
                                         0.0307  0.0304  0.1034  0.0041
 135. (0.00298) RY*( 2) O  8             s(  0.71%)p99.99( 98.20%)d 1.54(  1.09%)
                                         0.0000  0.0009  0.0590 -0.0436 -0.0411
                                        -0.0053  0.2240 -0.0335  0.0011 -0.3461
                                        -0.0269 -0.0074 -0.8999  0.0179 -0.0082
[...]
 O          0.213 -0.147 -0.093   -0.050 -0.092  0.021    0.086  0.038 -0.138
 C          0.181 -0.046 -0.117    0.069 -0.030 -0.017   -0.054  0.059 -0.015
 H          0.259 -0.122 -0.126    0.254 -0.314 -0.019   -0.127 -0.026  0.034
 H          0.205 -0.070 -0.108    0.054 -0.036 -0.121   -0.333  0.302 -0.072
 H          0.126  0.018 -0.216   -0.072  0.081 -0.245   -0.073 -0.226  0.092
 H          0.015 -0.044  0.073    0.067 -0.281  0.280   -0.060 -0.062  0.413
 H         -0.040  0.492 -0.072    0.047 -0.311  0.235   -0.060 -0.094  0.264
 H         -0.447  0.132  0.158    0.100 -0.191 -0.438   -0.028 -0.074  0.368
 TransDip   0.049  0.041 -0.013    0.004 -0.018  0.078    0.010  0.072 -0.010

 Mode:                13                     14                     15
 Frequency:       559.53                 639.79                 705.73
 Force Cnst:      0.6849                 0.7910                 1.3281
 Red. Mass:       3.7129                 3.2799                 4.5257
 IR Active:          YES                    YES                    YES
 IR Intens:        8.231                  3.870                  5.952
 Raman Active:       YES                    YES                    YES
               X      Y      Z        X      Y      Z        X      Y      Z
 C          0.019  0.045 -0.125    0.016  0.004 -0.100   -0.101 -0.008  0.340
 O         -0.013  0.067  0.043    0.029  0.032  0.043    0.026 -0.062 -0.075
 O         -0.083 -0.025  0.009   -0.033  0.023  0.014    0.088  0.021 -0.053
 C          0.090 -0.051 -0.040   -0.014 -0.120 -0.047   -0.305 -0.063  0.041
 C          0.018  0.028 -0.131    0.006 -0.007 -0.044   -0.056  0.010 -0.138
 O         -0.048 -0.063  0.057    0.053 -0.103  0.024    0.086  0.037  0.004
 C          0.219  0.068  0.127   -0.021  0.137  0.195    0.109  0.096  0.028
 O         -0.157  0.100 -0.068    0.019 -0.156  0.050    0.035 -0.002 -0.067
 C          0.076 -0.148  0.125   -0.070  0.204 -0.100    0.050  0.005  0.026
 H          0.118 -0.491  0.189    0.160 -0.242 -0.083    0.102 -0.365  0.092
 H         -0.329  0.190 -0.044   -0.133  0.228 -0.289   -0.310  0.297 -0.172
 H         -0.067 -0.488  0.099   -0.270  0.396 -0.435   -0.098 -0.257 -0.041
 H          0.025  0.058 -0.183    0.059  0.092 -0.274    0.064  0.014 -0.360
 H          0.031  0.110 -0.181    0.058  0.124 -0.045    0.050 -0.062  0.208
 H         -0.014  0.054  0.007    0.032  0.049  0.190    0.085  0.002 -0.242
 TransDip   0.073 -0.002 -0.056   -0.039 -0.028 -0.041   -0.020  0.051  0.056

 Mode:                16                     17                     18
 Frequency:       738.28                 762.36                 866.43
 Force Cnst:      1.4212                 4.5826                 1.1301
 Red. Mass:       4.4255                13.3828                 2.5549
 IR Active:          YES                    YES                    YES
 IR Intens:       16.613                 78.907                 30.573
 Raman Active:       YES                    YES                    YES
               X      Y      Z        X      Y      Z        X      Y      Z
 C         -0.152  0.024  0.252   -0.443 -0.390 -0.161    0.060  0.005 -0.146
 O          0.034  0.073 -0.063    0.435 -0.232  0.170   -0.008 -0.002  0.031
 O         -0.033 -0.025 -0.091   -0.186  0.473 -0.087   -0.021  0.006  0.031
 C          0.289 -0.003  0.165    0.040  0.047  0.019   -0.065  0.007  0.256
 C          0.048  0.060 -0.206    0.012  0.022  0.024   -0.053  0.097 -0.091
 O         -0.050 -0.127  0.007    0.014  0.010  0.003    0.022 -0.077 -0.010
 C         -0.019 -0.029  0.025   -0.009  0.046 -0.007    0.055 -0.048 -0.005
 O         -0.009 -0.019  0.036    0.016  0.033 -0.041    0.018 -0.005 -0.001
 C         -0.050  0.060 -0.032    0.016 -0.075  0.039   -0.022  0.040 -0.074
 H         -0.045  0.142 -0.051    0.016 -0.097  0.048   -0.206  0.337 -0.070
 H          0.048 -0.021  0.017    0.053 -0.096  0.047   -0.079  0.115  0.075
 H         -0.027  0.149 -0.039    0.033 -0.089  0.062    0.102 -0.166  0.179
 H         -0.166 -0.053  0.336    0.002 -0.033  0.142    0.113 -0.091 -0.128
 H         -0.124  0.009 -0.596    0.011 -0.029  0.077    0.061 -0.154  0.433
 H         -0.164  0.006 -0.332    0.028  0.003 -0.052    0.123  0.003 -0.582
 TransDip  -0.022 -0.079  0.101   -0.249 -0.082 -0.110   -0.031  0.041  0.169

 Mode:                19                     20                     21
 Frequency:       950.19                1007.12                1053.71
 Force Cnst:      1.5376                 0.9267                 1.3919
 Red. Mass:       2.8906                 1.5507                 2.1277
 IR Active:          YES                    YES                    YES
 IR Intens:       39.082                 13.463                 53.987
 Raman Active:       YES                    YES                    YES
               X      Y      Z        X      Y      Z        X      Y      Z
 C          0.028 -0.001 -0.039    0.024  0.009 -0.042    0.024  0.003 -0.060
 O         -0.014  0.039  0.003   -0.003 -0.013  0.009   -0.001 -0.012  0.013
 O          0.008 -0.020  0.014    0.000  0.003  0.009   -0.009  0.004  0.011
 C         -0.030 -0.022  0.114   -0.053 -0.012 -0.031   -0.063 -0.014  0.206
 C         -0.008  0.029 -0.026    0.063  0.092  0.033    0.079 -0.106 -0.067
 O          0.042 -0.091 -0.007    0.011 -0.026  0.024   -0.004  0.072 -0.061
 C         -0.153  0.212 -0.060   -0.068 -0.070 -0.079   -0.083  0.021 -0.043
 O          0.076  0.041 -0.098    0.008  0.005  0.023    0.021 -0.015  0.017
 C         -0.037 -0.137  0.145    0.056  0.067  0.055    0.072  0.010 -0.013
 H          0.319 -0.309  0.050    0.137 -0.417  0.131   -0.055 -0.101  0.063
 H          0.392 -0.526  0.081   -0.211  0.256 -0.237   -0.157  0.201 -0.074
 H         -0.103  0.367 -0.195   -0.154 -0.080 -0.143    0.049 -0.270  0.094
 H          0.012 -0.010 -0.019   -0.067 -0.128  0.526   -0.156  0.167 -0.015
 H         -0.003 -0.003  0.011   -0.102 -0.134 -0.162   -0.010  0.197 -0.556
 H          0.008  0.008 -0.138   -0.112 -0.037 -0.398   -0.135  0.031  0.557
 TransDip  -0.146  0.122  0.063   -0.043  0.104 -0.035   -0.065 -0.063  0.217

 Mode:                22                     23                     24
 Frequency:      1066.55                1146.68                1258.75
 Force Cnst:      1.2563                 1.9657                 6.4540
 Red. Mass:       1.8745                 2.5373                 6.9136
 IR Active:          YES                    YES                    YES
 IR Intens:       11.728                 63.128                388.151
 Raman Active:       YES                    YES                    YES
               X      Y      Z        X      Y      Z        X      Y      Z
 C          0.015 -0.003 -0.013    0.028  0.035 -0.017    0.118  0.156  0.056
 O         -0.003 -0.003  0.002    0.008 -0.049  0.010    0.022 -0.175  0.008
 O          0.001  0.002  0.004   -0.028  0.016 -0.006   -0.094  0.037 -0.041
 C         -0.144 -0.039 -0.055   -0.077 -0.030  0.086   -0.114  0.520 -0.054
 C          0.115  0.042  0.008    0.040 -0.021 -0.028    0.023 -0.093  0.017
 O          0.026 -0.011  0.014   -0.010  0.064 -0.023    0.062 -0.309  0.054
 C          0.066  0.107  0.096    0.208 -0.178 -0.006    0.007 -0.026 -0.003
 O         -0.018 -0.024 -0.009   -0.014  0.058 -0.042   -0.015 -0.006  0.014
 C         -0.037 -0.065 -0.071   -0.136  0.034  0.080    0.016 -0.014  0.013
 H         -0.165  0.400 -0.125    0.229 -0.026 -0.062    0.010  0.084 -0.012
 H          0.134 -0.166  0.220    0.139 -0.230 -0.074   -0.084  0.062 -0.074
 H          0.174 -0.036  0.183   -0.234  0.680 -0.367    0.001  0.076 -0.058
 H         -0.133 -0.050  0.535   -0.078  0.036  0.102   -0.036  0.289 -0.371
 H         -0.104 -0.056 -0.426   -0.008  0.024 -0.172   -0.035  0.249 -0.436
 H         -0.189 -0.034 -0.146   -0.089  0.006  0.151   -0.047 -0.054  0.045
 TransDip   0.044  0.069 -0.073    0.196 -0.101  0.126    0.061  0.625 -0.059

 Mode:                25                     26                     27
 Frequency:      1290.84                1326.24                1341.43
 Force Cnst:      5.5685                 1.3836                 1.4110
 Red. Mass:       5.6720                 1.3351                 1.3309
 IR Active:          YES                    YES                    YES
 IR Intens:      112.404                 45.006                 84.910
 Raman Active:       YES                    YES                    YES
               X      Y      Z        X      Y      Z        X      Y      Z
 C         -0.181 -0.301 -0.081    0.034  0.056  0.015   -0.043 -0.045 -0.019
 O         -0.046  0.271 -0.021    0.006 -0.047  0.004   -0.007  0.043 -0.003
 O          0.195 -0.060  0.085   -0.030  0.008 -0.013    0.036 -0.011  0.015
 C         -0.118  0.235 -0.019    0.011  0.004 -0.017   -0.001 -0.002  0.006
 C          0.024 -0.028 -0.112   -0.006  0.022 -0.116    0.001 -0.007  0.041
 O          0.035 -0.117  0.023    0.002 -0.014  0.004    0.001  0.002 -0.001
 C          0.059 -0.103  0.017   -0.023  0.030 -0.010   -0.012  0.008 -0.004
 O         -0.003  0.024 -0.015    0.000 -0.008  0.008    0.002  0.000  0.000
 C         -0.025  0.062 -0.005    0.032 -0.053  0.018    0.059 -0.109  0.054
 H          0.004 -0.201  0.048   -0.043  0.199 -0.022   -0.080  0.521 -0.067
 H          0.119 -0.058  0.047   -0.186  0.130 -0.079   -0.444  0.305 -0.260
 H         -0.056 -0.045 -0.016    0.006  0.160 -0.102   -0.040  0.392 -0.280
 H         -0.167 -0.062  0.362   -0.124 -0.218  0.469    0.041  0.076 -0.157
 H          0.141  0.001  0.230    0.152 -0.148  0.494   -0.049  0.056 -0.161
 H         -0.039  0.110  0.556   -0.012  0.142  0.494    0.010 -0.051 -0.182
 TransDip  -0.307 -0.082 -0.120    0.048  0.181  0.105   -0.240  0.044 -0.166

 Mode:                28                     29                     30
 Frequency:      1470.34                1489.75                1497.40
 Force Cnst:      1.3464                 1.3910                 1.3985
 Red. Mass:       1.0570                 1.0638                 1.0586
 IR Active:          YES                    YES                    YES
 IR Intens:        5.764                  5.303                  8.181
 Raman Active:       YES                    YES                    YES
               X      Y      Z        X      Y      Z        X      Y      Z
 C         -0.006 -0.002 -0.004   -0.016  0.011 -0.006    0.007  0.000  0.002
 O         -0.001  0.002  0.001    0.001 -0.003  0.000    0.000 -0.001  0.001
 O          0.005 -0.001  0.002    0.009 -0.004  0.004   -0.004  0.001 -0.002
 C         -0.006  0.008  0.003    0.013 -0.012 -0.008   -0.009 -0.010 -0.004
 C         -0.031  0.012  0.002    0.033 -0.043 -0.006   -0.041 -0.034 -0.005
 O          0.001 -0.002  0.000   -0.002  0.002  0.001    0.001  0.002  0.001
 C         -0.001  0.000 -0.012   -0.003  0.006 -0.009    0.010  0.007 -0.001
 O         -0.005 -0.006  0.009   -0.003 -0.006  0.008   -0.004 -0.004  0.005
 C         -0.051 -0.010 -0.007   -0.029 -0.002  0.003    0.003  0.018  0.030
 H          0.541 -0.043 -0.222    0.318  0.010 -0.137   -0.054  0.199 -0.009
 H         -0.184  0.098 -0.125   -0.071  0.018 -0.150    0.152 -0.167 -0.317
 H          0.362  0.148  0.414    0.170  0.020  0.226   -0.198 -0.263 -0.103
 H          0.176 -0.287  0.046   -0.407  0.493  0.071   -0.129 -0.069  0.258
 H         -0.078  0.044 -0.177    0.238  0.223  0.310    0.158  0.520 -0.049
 H          0.321  0.071  0.084   -0.297 -0.116 -0.220    0.531  0.020 -0.119
 TransDip   0.033  0.065 -0.025   -0.044  0.054 -0.025    0.072  0.000 -0.057

 Mode:                31                     32                     33
 Frequency:      1519.32                1627.90                1688.66
 Force Cnst:      1.4437                18.2758                17.1712
 Red. Mass:       1.0615                11.7050                10.2204
 IR Active:          YES                    YES                    YES
 IR Intens:        6.124                501.522                364.653
 Raman Active:       YES                    YES                    YES
               X      Y      Z        X      Y      Z        X      Y      Z
 C          0.000  0.006 -0.002    0.565 -0.536  0.246    0.097 -0.028  0.045
 O          0.000 -0.004 -0.001   -0.067  0.221 -0.031   -0.007  0.006 -0.005
 O          0.001 -0.001  0.001   -0.330  0.163 -0.143   -0.058  0.021 -0.027
 C         -0.003 -0.007 -0.001   -0.018  0.000  0.000   -0.006 -0.013 -0.028
 C         -0.020 -0.027 -0.001    0.002 -0.010 -0.002    0.016  0.001 -0.014
 O          0.000  0.002  0.000   -0.001  0.021 -0.002   -0.002  0.014 -0.001
 C         -0.010 -0.013  0.008    0.038  0.029 -0.094   -0.332 -0.318  0.549
 O          0.007  0.009 -0.013   -0.034 -0.031  0.058    0.214  0.218 -0.361
 C          0.016 -0.023 -0.046   -0.003 -0.011  0.008    0.025  0.007 -0.018
 H         -0.191 -0.302  0.130    0.081 -0.018 -0.033    0.119  0.197 -0.099
 H         -0.158  0.222  0.592   -0.122  0.106 -0.001   -0.125  0.080 -0.266
 H          0.140  0.357 -0.035    0.062  0.128  0.018    0.064 -0.205  0.193
 H         -0.134  0.033  0.151   -0.097  0.117 -0.018   -0.038  0.000  0.057
 H          0.126  0.348  0.000    0.060  0.046  0.086    0.029  0.005  0.000
 H          0.285 -0.012 -0.134   -0.074 -0.048 -0.080   -0.017 -0.004  0.005
 TransDip  -0.015  0.009  0.077    0.551 -0.421  0.182   -0.173 -0.396  0.432

 Mode:                34                     35                     36
 Frequency:      2968.66                2989.88                3041.47
 Force Cnst:      5.3958                 5.4563                 5.9687
 Red. Mass:       1.0392                 1.0360                 1.0951
 IR Active:          YES                    YES                    YES
 IR Intens:       92.231                187.271                107.331
 Raman Active:       YES                    YES                    YES
               X      Y      Z        X      Y      Z        X      Y      Z
 C          0.001  0.001  0.000    0.001  0.000  0.000    0.001 -0.001  0.000
 O          0.000  0.000  0.000    0.000  0.000  0.000    0.000  0.000  0.000
 O          0.000  0.000  0.000    0.000  0.000  0.000    0.000  0.000  0.000
 C         -0.001 -0.001  0.000    0.000 -0.001 -0.001   -0.001 -0.003 -0.001
 C         -0.032 -0.008 -0.041   -0.003 -0.003 -0.007   -0.043 -0.074  0.005
 O          0.000  0.001  0.000    0.000  0.001  0.000    0.000  0.001  0.001
 C         -0.001  0.000  0.000   -0.001 -0.001  0.001    0.001  0.000  0.000
 O          0.000  0.000  0.000    0.001  0.000  0.000    0.000  0.000  0.000
 C          0.006 -0.003  0.005   -0.041  0.025 -0.012    0.006 -0.007 -0.023
 H         -0.040 -0.029 -0.107    0.205  0.147  0.549    0.069  0.042  0.166
 H          0.039  0.043 -0.004   -0.234 -0.243  0.031   -0.008 -0.012 -0.004
 H         -0.067  0.025  0.059    0.518 -0.194 -0.432   -0.136  0.049  0.104
 H          0.599  0.455  0.318    0.098  0.074  0.053    0.379  0.277  0.215
 H         -0.265  0.091  0.082   -0.057  0.020  0.020    0.230 -0.114 -0.092
 H          0.046 -0.455  0.089    0.005 -0.058  0.011   -0.102  0.740 -0.167
 TransDip  -0.074 -0.079 -0.288   -0.414  0.127 -0.070   -0.092 -0.319  0.009

 Mode:                37                     38                     39
 Frequency:      3048.28                3085.05                3120.73
 Force Cnst:      6.0218                 6.1598                 6.3004
 Red. Mass:       1.0999                 1.0985                 1.0980
 IR Active:          YES                    YES                    YES
 IR Intens:       99.628                 45.761                  3.608
 Raman Active:       YES                    YES                    YES
               X      Y      Z        X      Y      Z        X      Y      Z
 C          0.000  0.000  0.000    0.000  0.001  0.000    0.000  0.001  0.000
 O          0.000  0.000  0.000    0.000  0.000  0.000   -0.001 -0.001  0.000
 O          0.000  0.000  0.000    0.000  0.000  0.000    0.000  0.000  0.000
 C         -0.001  0.001  0.001   -0.002  0.002  0.001    0.001  0.000  0.000
 C          0.015  0.017 -0.004   -0.074  0.051  0.015    0.001 -0.003  0.000
 O          0.000  0.000  0.000    0.000  0.000 -0.001    0.000  0.000  0.000
 C          0.002  0.000 -0.003    0.001  0.000  0.000   -0.002 -0.001  0.001
 O         -0.001  0.000  0.001    0.000  0.000  0.000    0.000  0.000 -0.001
 C          0.014 -0.029 -0.082   -0.002 -0.003 -0.004   -0.072 -0.054  0.007
 H          0.273  0.170  0.660    0.022  0.014  0.053    0.058  0.038  0.176
 H          0.026  0.017 -0.029    0.013  0.015 -0.004    0.621  0.698 -0.105
 H         -0.470  0.164  0.363   -0.008  0.002  0.006    0.195 -0.074 -0.162
 H         -0.085 -0.062 -0.049    0.051  0.063  0.041    0.005  0.003  0.003
 H         -0.113  0.049  0.045    0.800 -0.298 -0.311   -0.014  0.005  0.006
 H          0.026 -0.192  0.043    0.033 -0.380  0.090   -0.004  0.034 -0.007
 TransDip   0.172 -0.070 -0.260   -0.159  0.145 -0.027   -0.022  0.021  0.053

 STANDARD THERMODYNAMIC QUANTITIES AT   298.15 K  AND     1.00 ATM

   This Molecule has  1 Imaginary Frequencies
   Zero point vibrational energy:       65.009 kcal/mol

   Atom    1 Element C  Has Mass   12.00000
   Atom    2 Element O  Has Mass   15.99491
   Atom    3 Element O  Has Mass   15.99491
   Atom    4 Element C  Has Mass   12.00000
   Atom    5 Element C  Has Mass   12.00000
   Atom    6 Element O  Has Mass   15.99491
   Atom    7 Element C  Has Mass   12.00000
   Atom    8 Element O  Has Mass   15.99491
   Atom    9 Element C  Has Mass   12.00000
   Atom   10 Element H  Has Mass    1.00783
   Atom   11 Element H  Has Mass    1.00783
   Atom   12 Element H  Has Mass    1.00783
   Atom   13 Element H  Has Mass    1.00783
   Atom   14 Element H  Has Mass    1.00783
   Atom   15 Element H  Has Mass    1.00783
   Molecular Mass:   130.026620 amu
   Principal axes and moments of inertia in amu*Bohr^2:
                             1           2           3
    Eigenvalues --      856.00497  1252.55421  1419.93519
          X               0.99706    -0.07594     0.01062
          Y               0.07583     0.99706     0.01063
          Z              -0.01140    -0.00979     0.99989
   Rotational Symmetry Number is   1
   The Molecule is an Asymmetric Top
   Translational Enthalpy:        0.889 kcal/mol
   Rotational Enthalpy:           0.889 kcal/mol
   Vibrational Enthalpy:         68.688 kcal/mol
   gas constant (RT):             0.592 kcal/mol
   Translational Entropy:        40.501  cal/mol.K
   Rotational Entropy:           28.811  cal/mol.K
   Vibrational Entropy:          21.052  cal/mol.K

   Total Enthalpy:               71.058 kcal/mol
   Total Entropy:                90.364  cal/mol.K
Archival summary:
1\1\bt2600-11\FREQ\ProcedureUnspecified\6-31+G*\456(2-,1)\emavera\TueJun623:01:532017TueJun623:01:532017\0\\#,FREQ,ProcedureUnspecified,6-31+G*,\\-2,1\C\O,1,1.3225\C,1,1.57121,2,113.252\O,3,1.23116,1,122.906,2,-22.9971,0\C,3,1.53955,1,119.578,2,155.774,0\H,5,1.09475,3,108.635,1,48.102,0\H,5,1.1005,3,109.358,1,169.972,0\H,5,1.10103,3,109.82,1,-70.584,0\C,1,1.59635,2,110.761,3,121.038,0\H,9,1.0968,1,105.725,2,55.8289,0\H,9,1.10009,1,115.091,2,176.212,0\H,9,1.10339,1,108.972,2,-59.6251,0\C,1,1.67275,2,117.169,3,-121.768,0\O,13,1.25085,1,116.749,2,-8.21395,0\O,13,1.27753,1,116.494,2,174.169,0\\\@

 Total job time:  3009.19s(wall), 3009.33s(cpu) 
 Tue Jun  6 23:01:53 2017

        *************************************************************
        *                                                           *
        *  Thank you very much for using Q-Chem.  Have a nice day.  *
        *                                                           *
        *************************************************************


0 sent ACK to 0 
now end server 0 ... 
cleanup process ... done
