Jobname.Temp
FOPT      R                             6-31+G(d)           
Number of atoms                            I               15
Charge                                     I               -2
Multiplicity                               I                1
Number of electrons                        I               70
Number of alpha electrons                  I               35
Number of beta electrons                   I               35
Atomic numbers                             I   N=          15
           6           8           8           6           6           8
           6           8           6           1           1           1
           1           1           1
Current cartesian coordinates              R   N=          45
  3.02236137E+00  5.55513241E-01 -1.20202350E-01  2.78125214E+00  2.87994216E+00
  2.79501647E-01  5.12716227E+00 -6.98081143E-01 -4.71619397E-01  6.96548884E-01
 -1.06603818E+00  2.18372927E-01 -2.84093912E+00  8.18327518E-01 -2.74940408E+00
  9.24188853E-01 -3.44988863E+00  5.97920220E-01 -2.11578084E+00 -1.34778431E-01
 -1.12315091E-02 -3.91271400E+00 -1.85514747E+00  6.46365317E-01 -2.49585545E+00
  2.09644483E+00  1.86411577E+00 -4.55429695E+00  2.62907128E+00  1.69985290E+00
 -1.50163456E+00  3.96872832E+00  1.10632840E+00 -2.08544039E+00  2.06494283E+00
  3.89677951E+00 -3.29064130E+00 -1.15323797E+00 -3.74487131E+00 -1.20411920E+00
  1.64452296E+00 -3.89394675E+00 -4.32099068E+00  2.21455932E+00 -2.69138962E+00
Nuclear charges                            R   N=          15
  6.00000000E+00  8.00000000E+00  8.00000000E+00  6.00000000E+00  6.00000000E+00
  8.00000000E+00  6.00000000E+00  8.00000000E+00  6.00000000E+00  1.00000000E+00
  1.00000000E+00  1.00000000E+00  1.00000000E+00  1.00000000E+00  1.00000000E+00
Number of basis functions                  I              183
Number of contracted shells                I               57
Number of primitive shells                 I              132
Highest angular momentum                   I                2
Largest degree of contraction              I                6
Shell types                                I   N=          57
           0          -1          -1          -1           2           0
          -1          -1          -1           2           0          -1
          -1          -1           2           0          -1          -1
          -1           2           0          -1          -1          -1
           2           0          -1          -1          -1           2
           0          -1          -1          -1           2           0
          -1          -1          -1           2           0          -1
          -1          -1           2           0           0           0
           0           0           0           0           0           0
           0           0           0
Number of primitives per shell             I   N=          57
           6           3           1           1           1           6
           3           1           1           1           6           3
           1           1           1           6           3           1
           1           1           6           3           1           1
           1           6           3           1           1           1
           6           3           1           1           1           6
           3           1           1           1           6           3
           1           1           1           3           1           3
           1           3           1           3           1           3
           1           3           1
Shell to atom map                          I   N=          57
           1           1           1           1           1           2
           2           2           2           2           3           3
           3           3           3           4           4           4
           4           4           5           5           5           5
           5           6           6           6           6           6
           7           7           7           7           7           8
           8           8           8           8           9           9
           9           9           9          10          10          11
          11          12          12          13          13          14
          14          15          15
Primitive exponents                        R   N=         132
  3.04752490E+03  4.57369510E+02  1.03948690E+02  2.92101550E+01  9.28666300E+00
  3.16392700E+00  7.86827240E+00  1.88128850E+00  5.44249300E-01  1.68714400E-01
  4.38000000E-02  8.00000000E-01  5.48467170E+03  8.25234950E+02  1.88046960E+02
  5.29645000E+01  1.68975700E+01  5.79963530E+00  1.55396160E+01  3.59993360E+00
  1.01376180E+00  2.70005800E-01  8.45000000E-02  8.00000000E-01  5.48467170E+03
  8.25234950E+02  1.88046960E+02  5.29645000E+01  1.68975700E+01  5.79963530E+00
  1.55396160E+01  3.59993360E+00  1.01376180E+00  2.70005800E-01  8.45000000E-02
  8.00000000E-01  3.04752490E+03  4.57369510E+02  1.03948690E+02  2.92101550E+01
  9.28666300E+00  3.16392700E+00  7.86827240E+00  1.88128850E+00  5.44249300E-01
  1.68714400E-01  4.38000000E-02  8.00000000E-01  3.04752490E+03  4.57369510E+02
  1.03948690E+02  2.92101550E+01  9.28666300E+00  3.16392700E+00  7.86827240E+00
  1.88128850E+00  5.44249300E-01  1.68714400E-01  4.38000000E-02  8.00000000E-01
  5.48467170E+03  8.25234950E+02  1.88046960E+02  5.29645000E+01  1.68975700E+01
  5.79963530E+00  1.55396160E+01  3.59993360E+00  1.01376180E+00  2.70005800E-01
  8.45000000E-02  8.00000000E-01  3.04752490E+03  4.57369510E+02  1.03948690E+02
  2.92101550E+01  9.28666300E+00  3.16392700E+00  7.86827240E+00  1.88128850E+00
  5.44249300E-01  1.68714400E-01  4.38000000E-02  8.00000000E-01  5.48467170E+03
  8.25234950E+02  1.88046960E+02  5.29645000E+01  1.68975700E+01  5.79963530E+00
  1.55396160E+01  3.59993360E+00  1.01376180E+00  2.70005800E-01  8.45000000E-02
  8.00000000E-01  3.04752490E+03  4.57369510E+02  1.03948690E+02  2.92101550E+01
  9.28666300E+00  3.16392700E+00  7.86827240E+00  1.88128850E+00  5.44249300E-01
  1.68714400E-01  4.38000000E-02  8.00000000E-01  1.87311370E+01  2.82539370E+00
  6.40121700E-01  1.61277800E-01  1.87311370E+01  2.82539370E+00  6.40121700E-01
  1.61277800E-01  1.87311370E+01  2.82539370E+00  6.40121700E-01  1.61277800E-01
  1.87311370E+01  2.82539370E+00  6.40121700E-01  1.61277800E-01  1.87311370E+01
  2.82539370E+00  6.40121700E-01  1.61277800E-01  1.87311370E+01  2.82539370E+00
  6.40121700E-01  1.61277800E-01
Contraction coefficients                   R   N=         132
  3.17779390E-03  2.43133190E-02  1.19238892E-01  4.02155213E-01  8.10498179E-01
  6.27542848E-01 -1.19332409E-01 -1.60854212E-01  1.14345648E+00  1.00000000E+00
  1.00000000E+00  1.00000000E+00  3.17155790E-03  2.41622794E-02  1.18550378E-01
  4.03072948E-01  8.14398079E-01  6.20976348E-01 -1.10777504E-01 -1.48026305E-01
  1.13076704E+00  1.00000000E+00  1.00000000E+00  1.00000000E+00  3.17155790E-03
  2.41622794E-02  1.18550378E-01  4.03072948E-01  8.14398079E-01  6.20976348E-01
 -1.10777504E-01 -1.48026305E-01  1.13076704E+00  1.00000000E+00  1.00000000E+00
  1.00000000E+00  3.17779390E-03  2.43133190E-02  1.19238892E-01  4.02155213E-01
  8.10498179E-01  6.27542848E-01 -1.19332409E-01 -1.60854212E-01  1.14345648E+00
  1.00000000E+00  1.00000000E+00  1.00000000E+00  3.17779390E-03  2.43133190E-02
  1.19238892E-01  4.02155213E-01  8.10498179E-01  6.27542848E-01 -1.19332409E-01
 -1.60854212E-01  1.14345648E+00  1.00000000E+00  1.00000000E+00  1.00000000E+00
  3.17155790E-03  2.41622794E-02  1.18550378E-01  4.03072948E-01  8.14398079E-01
  6.20976348E-01 -1.10777504E-01 -1.48026305E-01  1.13076704E+00  1.00000000E+00
  1.00000000E+00  1.00000000E+00  3.17779390E-03  2.43133190E-02  1.19238892E-01
  4.02155213E-01  8.10498179E-01  6.27542848E-01 -1.19332409E-01 -1.60854212E-01
  1.14345648E+00  1.00000000E+00  1.00000000E+00  1.00000000E+00  3.17155790E-03
  2.41622794E-02  1.18550378E-01  4.03072948E-01  8.14398079E-01  6.20976348E-01
 -1.10777504E-01 -1.48026305E-01  1.13076704E+00  1.00000000E+00  1.00000000E+00
  1.00000000E+00  3.17779390E-03  2.43133190E-02  1.19238892E-01  4.02155213E-01
  8.10498179E-01  6.27542848E-01 -1.19332409E-01 -1.60854212E-01  1.14345648E+00
  1.00000000E+00  1.00000000E+00  1.00000000E+00  5.80143482E-02  4.06558998E-01
  1.40946902E+00  1.73205081E+00  5.80143482E-02  4.06558998E-01  1.40946902E+00
  1.73205081E+00  5.80143482E-02  4.06558998E-01  1.40946902E+00  1.73205081E+00
  5.80143482E-02  4.06558998E-01  1.40946902E+00  1.73205081E+00  5.80143482E-02
  4.06558998E-01  1.40946902E+00  1.73205081E+00  5.80143482E-02  4.06558998E-01
  1.40946902E+00  1.73205081E+00
P(S=P) Contraction coefficients            R   N=         132
  0.00000000E+00  0.00000000E+00  0.00000000E+00  0.00000000E+00  0.00000000E+00
  0.00000000E+00  1.19509939E-01  5.48062410E-01  1.28917971E+00  1.73205081E+00
  1.73205081E+00  0.00000000E+00  0.00000000E+00  0.00000000E+00  0.00000000E+00
  0.00000000E+00  0.00000000E+00  0.00000000E+00  1.22757888E-01  5.88469108E-01
  1.25947563E+00  1.73205081E+00  1.73205081E+00  0.00000000E+00  0.00000000E+00
  0.00000000E+00  0.00000000E+00  0.00000000E+00  0.00000000E+00  0.00000000E+00
  1.22757888E-01  5.88469108E-01  1.25947563E+00  1.73205081E+00  1.73205081E+00
  0.00000000E+00  0.00000000E+00  0.00000000E+00  0.00000000E+00  0.00000000E+00
  0.00000000E+00  0.00000000E+00  1.19509939E-01  5.48062410E-01  1.28917971E+00
  1.73205081E+00  1.73205081E+00  0.00000000E+00  0.00000000E+00  0.00000000E+00
  0.00000000E+00  0.00000000E+00  0.00000000E+00  0.00000000E+00  1.19509939E-01
  5.48062410E-01  1.28917971E+00  1.73205081E+00  1.73205081E+00  0.00000000E+00
  0.00000000E+00  0.00000000E+00  0.00000000E+00  0.00000000E+00  0.00000000E+00
  0.00000000E+00  1.22757888E-01  5.88469108E-01  1.25947563E+00  1.73205081E+00
  1.73205081E+00  0.00000000E+00  0.00000000E+00  0.00000000E+00  0.00000000E+00
  0.00000000E+00  0.00000000E+00  0.00000000E+00  1.19509939E-01  5.48062410E-01
  1.28917971E+00  1.73205081E+00  1.73205081E+00  0.00000000E+00  0.00000000E+00
  0.00000000E+00  0.00000000E+00  0.00000000E+00  0.00000000E+00  0.00000000E+00
  1.22757888E-01  5.88469108E-01  1.25947563E+00  1.73205081E+00  1.73205081E+00
  0.00000000E+00  0.00000000E+00  0.00000000E+00  0.00000000E+00  0.00000000E+00
  0.00000000E+00  0.00000000E+00  1.19509939E-01  5.48062410E-01  1.28917971E+00
  1.73205081E+00  1.73205081E+00  0.00000000E+00  0.00000000E+00  0.00000000E+00
  0.00000000E+00  0.00000000E+00  0.00000000E+00  0.00000000E+00  0.00000000E+00
  0.00000000E+00  0.00000000E+00  0.00000000E+00  0.00000000E+00  0.00000000E+00
  0.00000000E+00  0.00000000E+00  0.00000000E+00  0.00000000E+00  0.00000000E+00
  0.00000000E+00  0.00000000E+00  0.00000000E+00  0.00000000E+00  0.00000000E+00
  0.00000000E+00  0.00000000E+00
Coordinates of each shell                  R   N=         171
  3.02236137E+00  5.55513241E-01 -1.20202350E-01  3.02236137E+00  5.55513241E-01
 -1.20202350E-01  3.02236137E+00  5.55513241E-01 -1.20202350E-01  3.02236137E+00
  5.55513241E-01 -1.20202350E-01  3.02236137E+00  5.55513241E-01 -1.20202350E-01
  2.78125214E+00  2.87994216E+00  2.79501647E-01  2.78125214E+00  2.87994216E+00
  2.79501647E-01  2.78125214E+00  2.87994216E+00  2.79501647E-01  2.78125214E+00
  2.87994216E+00  2.79501647E-01  2.78125214E+00  2.87994216E+00  2.79501647E-01
  5.12716227E+00 -6.98081143E-01 -4.71619397E-01  5.12716227E+00 -6.98081143E-01
 -4.71619397E-01  5.12716227E+00 -6.98081143E-01 -4.71619397E-01  5.12716227E+00
 -6.98081143E-01 -4.71619397E-01  5.12716227E+00 -6.98081143E-01 -4.71619397E-01
  6.96548884E-01 -1.06603818E+00  2.18372927E-01  6.96548884E-01 -1.06603818E+00
  2.18372927E-01  6.96548884E-01 -1.06603818E+00  2.18372927E-01  6.96548884E-01
 -1.06603818E+00  2.18372927E-01  6.96548884E-01 -1.06603818E+00  2.18372927E-01
 -2.84093912E+00  8.18327518E-01 -2.74940408E+00 -2.84093912E+00  8.18327518E-01
 -2.74940408E+00 -2.84093912E+00  8.18327518E-01 -2.74940408E+00 -2.84093912E+00
  8.18327518E-01 -2.74940408E+00 -2.84093912E+00  8.18327518E-01 -2.74940408E+00
  9.24188853E-01 -3.44988863E+00  5.97920220E-01  9.24188853E-01 -3.44988863E+00
  5.97920220E-01  9.24188853E-01 -3.44988863E+00  5.97920220E-01  9.24188853E-01
 -3.44988863E+00  5.97920220E-01  9.24188853E-01 -3.44988863E+00  5.97920220E-01
 -2.11578084E+00 -1.34778431E-01 -1.12315091E-02 -2.11578084E+00 -1.34778431E-01
 -1.12315091E-02 -2.11578084E+00 -1.34778431E-01 -1.12315091E-02 -2.11578084E+00
 -1.34778431E-01 -1.12315091E-02 -2.11578084E+00 -1.34778431E-01 -1.12315091E-02
 -3.91271400E+00 -1.85514747E+00  6.46365317E-01 -3.91271400E+00 -1.85514747E+00
  6.46365317E-01 -3.91271400E+00 -1.85514747E+00  6.46365317E-01 -3.91271400E+00
 -1.85514747E+00  6.46365317E-01 -3.91271400E+00 -1.85514747E+00  6.46365317E-01
 -2.49585545E+00  2.09644483E+00  1.86411577E+00 -2.49585545E+00  2.09644483E+00
  1.86411577E+00 -2.49585545E+00  2.09644483E+00  1.86411577E+00 -2.49585545E+00
  2.09644483E+00  1.86411577E+00 -2.49585545E+00  2.09644483E+00  1.86411577E+00
 -4.55429695E+00  2.62907128E+00  1.69985290E+00 -4.55429695E+00  2.62907128E+00
  1.69985290E+00 -1.50163456E+00  3.96872832E+00  1.10632840E+00 -1.50163456E+00
  3.96872832E+00  1.10632840E+00 -2.08544039E+00  2.06494283E+00  3.89677951E+00
 -2.08544039E+00  2.06494283E+00  3.89677951E+00 -3.29064130E+00 -1.15323797E+00
 -3.74487131E+00 -3.29064130E+00 -1.15323797E+00 -3.74487131E+00 -1.20411920E+00
  1.64452296E+00 -3.89394675E+00 -1.20411920E+00  1.64452296E+00 -3.89394675E+00
 -4.32099068E+00  2.21455932E+00 -2.69138962E+00 -4.32099068E+00  2.21455932E+00
 -2.69138962E+00
SCF Energy                                 R     -4.921595370679369E+02
Dipole_Data                                R   N=           3
 -1.37628127E+00  3.30316026E+00 -1.16701987E+00
Quadrupole_Data                            R   N=           6
 -1.10528001E+02 -9.07387113E+00 -8.28224784E+01  4.46296283E+00  1.69627156E+00
 -6.23953650E+01
Octapole_Data                              R   N=          10
  3.99060421E+00  1.34899325E+01  3.76047528E+00 -1.28748712E+01  1.89723734E+00
 -4.12472623E+00 -5.85892538E+00  1.62246568E+01 -6.77605645E+00  1.17941073E+01
Hexadecapole_Data                          R   N=          15
 -1.32911896E+03 -3.11332008E+01 -2.92569279E+02 -1.12793354E+01 -5.15809342E+02
  3.15468595E+01  1.71127900E-01  3.77713089E+00 -1.45397899E+00 -2.32300159E+02
  6.01312039E+00 -1.26397796E+02 -1.08450973E+01  3.36650669E+00 -2.93594861E+02
Cartesian Forces                           R   N=          45
  9.26759187E-02 -3.28696882E-03  1.90785249E-02  6.50981014E-03 -3.54878589E-02
 -1.66173685E-02 -7.05979288E-02  5.01181373E-02  9.84739844E-04 -3.72915975E-02
 -1.43182715E-01 -3.45105294E-03  5.54387202E-02 -5.10423450E-02 -3.09855735E-02
  4.15538304E-03  1.19103325E-01 -1.31466880E-02 -3.70773171E-02  1.58687415E-03
  3.42502371E-02  1.97110433E-02 -6.90248269E-04 -7.99388857E-03 -8.81522679E-03
  9.45084050E-02 -3.37237917E-02  1.92682749E-02 -1.33568981E-02  6.06412719E-03
 -1.63546882E-02 -4.26250744E-02  2.09788402E-02  6.00370083E-03 -1.95331624E-02
 -1.04078941E-02 -2.24704988E-03  5.60894666E-02  1.90107639E-02 -2.09979029E-02
 -5.58480245E-03  1.75748342E-02 -1.03811400E-02 -6.61613461E-03 -1.61580987E-03
Current cartesian coordinates              R   N=          45
  3.00460210E+00  5.35909939E-01 -1.20569576E-01  2.75364480E+00  2.85811388E+00
  1.08637184E-01  5.04128609E+00 -6.44916927E-01 -6.31157389E-01  6.45365097E-01
 -1.10299139E+00  2.55949158E-01 -2.74577642E+00  7.92205864E-01 -2.72164362E+00
  9.25719125E-01 -3.39244270E+00  6.60052338E-01 -2.15425258E+00 -1.38785820E-01
  3.55949118E-02 -3.93409399E+00 -1.86855980E+00  6.58851303E-01 -2.54437814E+00
  2.14155335E+00  1.85777167E+00 -4.57363182E+00  2.66124709E+00  1.70625957E+00
 -1.54133610E+00  3.93823598E+00  1.17578607E+00 -2.11899215E+00  1.99246799E+00
  3.87021645E+00 -3.21140867E+00 -1.05073763E+00 -3.74314286E+00 -1.08862045E+00
  1.60188450E+00 -3.76776227E+00 -4.22902585E+00  2.19169631E+00 -2.71827127E+00
SCF Energy                                 R     -4.921951348195772E+02
Dipole_Data                                R   N=           3
 -1.18660065E+00  3.09131832E+00 -9.06086210E-01
Quadrupole_Data                            R   N=           6
 -1.09623931E+02 -9.60027819E+00 -8.21521511E+01  5.74693422E+00  2.23868020E+00
 -6.22056932E+01
Octapole_Data                              R   N=          10
  7.37258476E+00  1.29548063E+01  3.85299795E+00 -1.24384710E+01  3.08517010E+00
 -3.66619541E+00 -5.90040994E+00  1.58857325E+01 -6.78751270E+00  9.60820824E+00
Hexadecapole_Data                          R   N=          15
 -1.30125067E+03 -3.54553888E+01 -2.88999275E+02 -1.50771417E+01 -5.04819311E+02
  4.86649787E+01  2.90273764E+00  8.19239833E+00  3.10745724E+00 -2.29071675E+02
  5.60290273E+00 -1.25346974E+02  2.64955483E+00  5.01856355E+00 -2.88603748E+02
Cartesian Forces                           R   N=          45
  5.77958233E-02 -6.26481250E-04 -1.03626370E-02  6.27322759E-04 -1.21872837E-02
 -1.28706298E-03 -4.17744580E-02  2.42141916E-02  8.48925563E-03 -2.11327690E-02
 -8.63993044E-02  2.75501880E-03  4.11728690E-02 -3.27834284E-02 -2.12398352E-02
  1.66241905E-03  6.58220279E-02 -6.90563224E-03 -2.96667541E-02  2.85331911E-03
  2.40114172E-02  1.43865718E-02 -1.36735649E-04 -4.69538649E-03 -1.79441778E-03
  6.56168862E-02 -2.47011309E-02  1.00829992E-02 -1.07595444E-02  4.67625046E-03
 -9.01462660E-03 -2.95388545E-02  1.26666244E-02  3.82305617E-03 -1.46234805E-02
 -5.11957302E-03 -3.73433749E-03  3.42456949E-02  1.21187586E-02 -1.35405997E-02
 -1.28251671E-03  1.17497526E-02 -8.89309848E-03 -4.41449010E-03 -2.15581988E-03
Current cartesian coordinates              R   N=          45
  2.95715665E+00  5.59782040E-01 -2.24927488E-01  2.70119329E+00  2.85340128E+00
  1.40142379E-01  4.97242185E+00 -5.88312787E-01 -6.00067756E-01  5.95930909E-01
 -1.13331617E+00  2.42762720E-01 -2.70285599E+00  7.55102061E-01 -2.71712952E+00
  9.42844930E-01 -3.33467151E+00  6.74531533E-01 -2.19604833E+00 -1.39982748E-01
  5.81342186E-02 -3.94994341E+00 -1.86467808E+00  7.00614473E-01 -2.53671399E+00
  2.18726268E+00  1.82811355E+00 -4.54326006E+00  2.69759646E+00  1.72337146E+00
 -1.51278113E+00  3.88529289E+00  1.18443491E+00 -2.06353407E+00  1.90413709E+00
  3.81005140E+00 -3.20247121E+00 -9.74016668E-01 -3.74660509E+00 -1.04098011E+00
  1.54839034E+00 -3.68903916E+00 -4.19185832E+00  2.15889376E+00 -2.75781595E+00
SCF Energy                                 R     -4.922099711474445E+02
Dipole_Data                                R   N=           3
 -9.65524217E-01  2.86541204E+00 -1.22327710E+00
Quadrupole_Data                            R   N=           6
 -1.08867383E+02 -9.89274700E+00 -8.15445441E+01  5.61255006E+00  2.22665423E+00
 -6.19919061E+01
Octapole_Data                              R   N=          10
  1.02642975E+01  1.22287390E+01  4.20921934E+00 -1.24099161E+01  1.63313836E+00
 -4.06748022E+00 -5.93595273E+00  1.62352757E+01 -6.96951541E+00  8.74931295E+00
Hexadecapole_Data                          R   N=          15
 -1.27567142E+03 -4.01682525E+01 -2.85112285E+02 -1.89387245E+01 -4.95743430E+02
  5.00280609E+01  3.36573518E+00  8.65520571E+00  4.11181978E+00 -2.25271476E+02
  4.96317443E+00 -1.24167594E+02  5.51562266E+00  4.72790896E+00 -2.85324420E+02
Cartesian Forces                           R   N=          45
  2.68280527E-02 -2.58247102E-03  2.33893773E-02 -2.80337715E-03  4.93042652E-03
 -9.25641074E-03 -9.48382913E-03  5.15940823E-03 -1.04115842E-02 -1.65311449E-02
 -2.04548620E-02 -1.21575825E-02  2.65429665E-02 -1.18048085E-02 -7.25111720E-03
  3.05667860E-03  7.88126855E-03  3.01436094E-03 -1.95656755E-02  2.37185957E-03
  1.74248737E-02  6.97539848E-03 -1.50029641E-03 -3.16807346E-03 -1.22056153E-03
  3.29007194E-02 -1.40159969E-02  1.69629160E-03 -6.90718420E-03  3.82078623E-03
 -2.57232855E-04 -1.12548377E-02  5.13465910E-03  1.54562132E-03 -8.54401158E-03
 -2.08239704E-03 -5.68612770E-03  9.60131093E-03  1.96612655E-03 -5.04778202E-03
  2.93249671E-03  5.27636155E-03 -6.04927831E-03 -2.72901853E-03 -1.68338317E-03
Current cartesian coordinates              R   N=          45
  2.93465603E+00  5.65798404E-01 -1.92101139E-01  2.60133395E+00  2.88163375E+00
 -8.13745704E-02  4.87563202E+00 -5.63981453E-01 -8.00492441E-01  5.55474436E-01
 -1.15912866E+00  3.13898698E-01 -2.60568706E+00  7.50135501E-01 -2.70019637E+00
  9.25725523E-01 -3.32361990E+00  7.94494468E-01 -2.22909124E+00 -1.34964549E-01
  9.95099911E-02 -3.98338218E+00 -1.85755767E+00  7.02610367E-01 -2.56300037E+00
  2.21056175E+00  1.84131596E+00 -4.56175035E+00  2.70804094E+00  1.73500042E+00
 -1.49046028E+00  3.84483148E+00  1.25016691E+00 -2.10360933E+00  1.80536682E+00
  3.80640497E+00 -3.10584059E+00 -9.18082193E-01 -3.76707245E+00 -9.15904274E-01
  1.55511258E+00 -3.57055295E+00 -4.10499527E+00  2.15073384E+00 -2.80504018E+00
SCF Energy                                 R     -4.922156178508117E+02
Dipole_Data                                R   N=           3
 -6.75160865E-01  2.76512050E+00 -7.68945412E-01
Quadrupole_Data                            R   N=           6
 -1.07642588E+02 -9.95752528E+00 -8.15698906E+01  7.02604051E+00  3.02877143E+00
 -6.24353530E+01
Octapole_Data                              R   N=          10
  1.38218124E+01  1.22873884E+01  4.03077311E+00 -1.23512860E+01  3.77178831E+00
 -3.01392704E+00 -6.08549586E+00  1.55270346E+01 -6.84550526E+00  7.39867061E+00
Hexadecapole_Data                          R   N=          15
 -1.24209786E+03 -4.15512816E+01 -2.81539140E+02 -2.05533514E+01 -4.95921534E+02
  6.75056390E+01  6.93989176E+00  1.33145650E+01  1.12885328E+01 -2.23660523E+02
  4.81598548E+00 -1.26052068E+02  1.80416259E+01  8.61479116E+00 -2.89186686E+02
Cartesian Forces                           R   N=          45
 -4.65599910E-03  4.98130455E-03 -1.30160737E-02  3.72750782E-03  1.12473407E-03
  4.92504347E-03  6.60493948E-03 -2.05539033E-03  2.19029696E-03 -6.93404229E-03
  8.65961266E-03 -1.44234217E-03  1.60254800E-02 -3.95689053E-04  1.71981132E-04
  3.66049688E-03 -1.38967393E-02  6.05810298E-03 -1.22102008E-02 -3.03870520E-04
  5.69810149E-03  2.82875775E-03 -1.25879261E-03 -1.29164746E-03 -1.89163006E-03
  9.93708475E-03 -5.37273195E-03 -5.24077060E-04 -3.49399793E-03  3.13374588E-03
  4.54810496E-03  4.26058512E-04  8.47824753E-04 -1.28415081E-04 -3.48169257E-03
 -5.30047253E-04 -5.25587248E-03 -1.91644274E-03 -2.69700473E-03 -1.97027433E-03
  3.58119898E-03  2.36621815E-03 -3.82477569E-03 -1.90737844E-03 -1.04146751E-03
Current cartesian coordinates              R   N=          45
  2.93181426E+00  5.35550581E-01 -3.21590376E-01  2.66127278E+00  2.86247620E+00
 -2.59069798E-01  4.85545559E+00 -6.45281697E-01 -8.97187456E-01  5.35859801E-01
 -1.14245474E+00  3.53343617E-01 -2.54968941E+00  7.72564602E-01 -2.68641880E+00
  9.18115658E-01 -3.27545989E+00  9.85241735E-01 -2.25571555E+00 -1.22693627E-01
  1.20129341E-01 -3.99514485E+00 -1.87305288E+00  6.73575628E-01 -2.61329820E+00
  2.22276646E+00  1.86231207E+00 -4.61739404E+00  2.69147340E+00  1.76859799E+00
 -1.51280358E+00  3.85551945E+00  1.32025813E+00 -2.16797445E+00  1.74497873E+00
  3.81413147E+00 -2.95552688E+00 -8.92273119E-01 -3.80807068E+00 -8.79883108E-01
  1.69414838E+00 -3.46509122E+00 -4.12598701E+00  2.08661878E+00 -2.83358998E+00
SCF Energy                                 R     -4.922181331022624E+02
Dipole_Data                                R   N=           3
 -7.83521076E-01  2.87271557E+00 -6.39980227E-01
Quadrupole_Data                            R   N=           6
 -1.07698155E+02 -9.80807713E+00 -8.13962516E+01  7.40730106E+00  3.77317381E+00
 -6.29103675E+01
Octapole_Data                              R   N=          10
  1.39527511E+01  1.28892942E+01  3.94391381E+00 -1.29299611E+01  5.27206217E+00
 -2.32286603E+00 -6.08599554E+00  1.48138233E+01 -6.33366376E+00  6.89443903E+00
Hexadecapole_Data                          R   N=          15
 -1.24269491E+03 -3.89536734E+01 -2.82972803E+02 -1.84443495E+01 -4.90901352E+02
  7.83652875E+01  8.96082430E+00  1.69306715E+01  1.88557296E+01 -2.26179018E+02
  5.97415400E+00 -1.28083895E+02  2.67338342E+01  1.35609791E+01 -2.95722983E+02
Cartesian Forces                           R   N=          45
 -1.24798905E-03  2.50880888E-03 -4.91975090E-03 -6.45461764E-04  3.49682962E-04
  3.57277981E-03  2.42346595E-03 -2.10544619E-03 -1.22428996E-04 -1.92043644E-03
  3.06334581E-03 -7.08574360E-04  8.46291481E-03  8.50079460E-04  5.93193490E-05
  1.88513706E-03 -3.57945292E-03  4.35872733E-03 -6.96865408E-03 -2.78251012E-03
 -1.24751911E-03  1.96268861E-03  2.48791754E-03 -2.94594729E-04  1.67655058E-04
  1.22317814E-03 -1.63196087E-03  1.04086436E-04 -9.64562236E-04  1.39537905E-03
  3.36141519E-03  1.05419453E-03 -3.79981851E-04 -2.88734347E-04 -1.18126876E-03
  5.17432260E-04 -2.34006745E-03 -1.39467153E-03 -1.75513565E-03 -1.95474743E-03
  1.93489684E-03  1.75707796E-03 -3.00127255E-03 -1.46419241E-03 -6.00769282E-04
Current cartesian coordinates              R   N=          45
  2.91107849E+00  5.45445771E-01 -3.14771015E-01  2.65814879E+00  2.86644946E+00
 -1.07630856E-01  4.83266837E+00 -6.15060297E-01 -9.48268809E-01  5.11719043E-01
 -1.15638906E+00  3.32806695E-01 -2.56461268E+00  7.59713672E-01 -2.70518467E+00
  9.13069687E-01 -3.25862085E+00  1.07011014E+00 -2.28225063E+00 -1.31804221E-01
  1.04274283E-01 -4.02502842E+00 -1.86465419E+00  6.80230789E-01 -2.57261026E+00
  2.23195374E+00  1.83488072E+00 -4.56347332E+00  2.75024918E+00  1.76667957E+00
 -1.39816345E+00  3.82180076E+00  1.30022611E+00 -2.13244293E+00  1.70806032E+00
  3.77697084E+00 -2.89465276E+00 -9.09821024E-01 -3.85663195E+00 -9.45283536E-01
  1.78962762E+00 -3.44088441E+00 -4.21906537E+00  1.97792976E+00 -2.86623577E+00
SCF Energy                                 R     -4.922194433003954E+02
Dipole_Data                                R   N=           3
 -7.84168683E-01  2.86345003E+00 -8.06173521E-01
Quadrupole_Data                            R   N=           6
 -1.07814597E+02 -9.87201370E+00 -8.12223006E+01  7.22339360E+00  3.46686169E+00
 -6.32167550E+01
Octapole_Data                              R   N=          10
  1.45470939E+01  1.26209276E+01  4.04192575E+00 -1.26842691E+01  5.96132945E+00
 -2.92996764E+00 -6.77713246E+00  1.43322232E+01 -5.91064266E+00  7.65614065E+00
Hexadecapole_Data                          R   N=          15
 -1.24027423E+03 -4.29917768E+01 -2.82515757E+02 -2.04226701E+01 -4.89077475E+02
  7.59819614E+01  7.57569351E+00  1.44108512E+01  1.75611975E+01 -2.26858141E+02
  5.50396913E+00 -1.28338386E+02  2.31398503E+01  1.27610375E+01 -2.99230046E+02
Cartesian Forces                           R   N=          45
 -1.74318115E-04 -3.44688199E-04 -2.45588053E-03 -1.29024411E-05 -1.09590879E-03
  1.22496571E-03 -4.48910881E-04 -1.21613969E-03 -1.51695842E-03  1.14345461E-03
  2.61890698E-03  6.38648946E-03  9.02978498E-04 -1.42467057E-04  5.90496214E-04
  5.36392679E-04  1.03529398E-03  3.47352791E-05 -2.58772494E-03 -2.68869503E-03
 -4.48086772E-03  1.34246657E-03  2.92642544E-03 -1.19981273E-03  1.68220406E-03
 -5.03271785E-04  2.22691302E-04 -4.54007407E-04  1.57528255E-04  3.54635237E-04
 -3.01495464E-04 -8.38145827E-04  3.17419666E-04 -3.97337544E-04  2.42694160E-04
  7.14990719E-04  4.33033898E-04 -1.57585661E-04 -7.87012591E-04 -2.43192191E-05
  1.13289171E-03  5.84958814E-04 -1.63951431E-03 -1.12683848E-03  9.14958763E-06
Current cartesian coordinates              R   N=          45
  2.89448604E+00  5.27024069E-01 -3.83091463E-01  2.70068121E+00  2.84830004E+00
 -1.24685583E-01  4.75454063E+00 -6.70132969E-01 -1.12941093E+00  5.02750641E-01
 -1.13163172E+00  4.04041947E-01 -2.52555382E+00  7.70192792E-01 -2.70046866E+00
  9.20818219E-01 -3.20588230E+00  1.21520994E+00 -2.29675934E+00 -1.31031837E-01
  1.10572038E-01 -4.04154142E+00 -1.86182395E+00  6.59526609E-01 -2.59338011E+00
  2.22987185E+00  1.84344687E+00 -4.57544788E+00  2.77382573E+00  1.75386159E+00
 -1.36947825E+00  3.79796250E+00  1.34489073E+00 -2.19554711E+00  1.67257773E+00
  3.78686951E+00 -2.74116015E+00 -8.97154777E-01 -3.88984831E+00 -9.53071123E-01
  1.90986923E+00 -3.36254311E+00 -4.25223650E+00  1.88291425E+00 -2.90179951E+00
SCF Energy                                 R     -4.922208036759225E+02
Dipole_Data                                R   N=           3
 -7.86786174E-01  2.92302257E+00 -6.72938738E-01
Quadrupole_Data                            R   N=           6
 -1.07365506E+02 -9.74682181E+00 -8.10037756E+01  7.81624047E+00  3.52018052E+00
 -6.38510410E+01
Octapole_Data                              R   N=          10
  1.66878122E+01  1.26303023E+01  3.91271989E+00 -1.31570402E+01  7.76894070E+00
 -2.92723593E+00 -7.23592373E+00  1.29287161E+01 -5.25222786E+00  7.55546658E+00
Hexadecapole_Data                          R   N=          15
 -1.22537999E+03 -4.22904674E+01 -2.81712586E+02 -1.92060122E+01 -4.82628365E+02
  8.60628224E+01  7.02553251E+00  1.62311781E+01  1.97739339E+01 -2.29288996E+02
  6.38903664E+00 -1.29931475E+02  2.98650571E+01  1.43926956E+01 -3.07883116E+02
Cartesian Forces                           R   N=          45
 -3.30439819E-04 -2.34753579E-03  2.41902440E-03  4.24516340E-04 -3.05392336E-04
  4.41297957E-04 -2.38460814E-03  4.43945428E-04 -2.16041587E-03  2.92672298E-03
 -1.15583662E-03 -1.88071433E-03 -3.35198763E-03 -1.15492275E-03  6.47537434E-04
 -5.81830647E-04  3.27754895E-03  2.21679645E-03  6.71750878E-04 -6.09215732E-04
 -3.03088372E-03  4.15519223E-04  1.63186340E-03 -1.31708640E-03  2.60969360E-03
 -1.19199154E-03  1.46305059E-03 -5.29190733E-04  1.22926211E-03 -3.29834401E-04