
Running Job 1 of 1 prod_c.qcin
qchem prod_c.qcin_62065.0 /tmp/prod_c.qcin/ 1
/programs/x86_64/lib/qchem-4.3.2/bin/mpi/mpirun_qchem -machinefile /var/spool/torque/aux//113259.vali -np 1 /programs/x86_64/lib/qchem-4.3.2/exe/qcprog.exe prod_c.qcin_62065.0 /tmp/prod_c.qcin/

Process 0 of 1 is on bt2600-16.csail.mit.edu - thread support 0
initial socket setup ...start
initial socket setup ...done 
now start server 0 ... 

cmd = ssh thor /programs/x86_64/lib/qchem-4.3.2/bin/get_hostid 1177897979 > /tmp/prod_c.qcin/lic.dat
                  Welcome to Q-Chem
     A Quantum Leap Into The Future Of Chemistry


 Q-Chem 4.3, Q-Chem, Inc., Pleasanton, CA (2015)

 Y. Shao,  Z. Gan,  E. Epifanovsky,  A. T. B. Gilbert,  M. Wormit,  
 J. Kussmann,  A. W. Lange,  A. Behn,  J. Deng,  X. Feng,  D. Ghosh,  
 M. Goldey,  P. R. Horn,  L. D. Jacobson,  I. Kaliman,  R. Z. Khaliullin,  
 T. Kus,  A. Landau,  J. Liu,  E. I. Proynov,  Y. M. Rhee,  R. M. Richard,  
 M. A. Rohrdanz,  R. P. Steele,  E. J. Sundstrom,  H. L. Woodcock III,  
 P. M. Zimmerman,  D. Zuev,  B. Albrecht,  E. Alguire,  B. Austin,  
 S. A. Baeppler,  G. J. O. Beran,  Y. A. Bernard,  E. Berquist,  
 K. Brandhorst,  K. B. Bravaya,  S. T. Brown,  D. Casanova,  C.-M. Chang,  
 Y. Chen,  S. H. Chien,  K. D. Closser,  D. L. Crittenden,  M. Diedenhofen,  
 R. A. DiStasio Jr.,  H. Do,  A. D. Dutoi,  R. G. Edgar,  P.-T. Fang,  
 S. Fatehi,  Q. Feng,  L. Fusti-Molnar,  A. Ghysels,  
 A. Golubeva-Zadorozhnaya,  J. Gomes,  A. Gunina,  M. W. D. Hanson-Heine,  
 P. H. P. Harbach,  A. W. Hauser,  E. G. Hohenstein,  Z. C. Holden,  K. Hui,  
 T.-C. Jagau,  H. Ji,  B. Kaduk,  K. Khistyaev,  Jaehoon Kim,  Jihan Kim,  
 R. A. King,  P. Klunzinger,  D. Kosenkov,  T. Kowalczyk,  C. M. Krauter,  
 K. U. Lao,  A. Laurent,  K. V. Lawler,  S. Lehtola,  S. V. Levchenko,  
 C. Y. Lin,  Y.-S. Lin,  F. Liu,  E. Livshits,  R. C. Lochan,  A. Luenser,  
 P. Manohar,  S. F. Manzer,  S.-P. Mao,  N. Mardirossian,  A. V. Marenich,  
 L. A. Martinez-Martinez,  S. A. Maurer,  N. J. Mayhall,  K. Nanda,  
 C. M. Oana,  R. Olivares-Amaya,  D. P. O'Neill,  J. A. Parkhill,  
 T. M. Perrine,  R. Peverati,  P. A. Pieniazek,  F. Plasser,  A. Prociuk,  
 D. R. Rehn,  E. Rosta,  N. J. Russ,  N. Sergueev,  S. M. Sharada,  
 S. Sharma,  D. W. Small,  A. Sodt,  T. Stauch,  T. Stein,  D. Stuck,  
 Y.-C. Su,  A. J. W. Thom,  T. Tsuchimochi,  L. Vogt,  O. Vydrov,  T. Wang,  
 M. A. Watson,  J. Wenzel,  A. White,  C. F. Williams,  V. Vanovschi,  
 S. Yeganeh,  S. R. Yost,  Z.-Q. You,  I. Y. Zhang,  X. Zhang,  Y. Zhao,  
 B. R. Brooks,  G. K. L. Chan,  D. M. Chipman,  C. J. Cramer,  
 W. A. Goddard III,  M. S. Gordon,  W. J. Hehre,  A. Klamt,  
 H. F. Schaefer III,  M. W. Schmidt,  C. D. Sherrill,  D. G. Truhlar,  
 A. Warshel,  X. Xu,  A. Aspuru-Guzik,  R. Baer,  A. T. Bell,  N. A. Besley,  
 J.-D. Chai,  A. Dreuw,  B. D. Dunietz,  T. R. Furlani,  S. R. Gwaltney,  
 C.-P. Hsu,  Y. Jung,  J. Kong,  D. S. Lambrecht,  W. Liang,  C. Ochsenfeld,  
 V. A. Rassolov,  L. V. Slipchenko,  J. E. Subotnik,  T. Van Voorhis,  
 J. M. Herbert,  A. I. Krylov,  P. M. W. Gill,  M. Head-Gordon

 Contributors to earlier versions of Q-Chem not listed above: 
 R. D. Adamson,  J. Baker,  E. F. C. Byrd,  A. K. Chakraborty,  C.-L. Cheng,  
 H. Dachsel,  R. J. Doerksen,  G. Hawkins,  A. Heyden,  S. Hirata,  
 G. Kedziora,  F. J. Keil,  C. Kelley,  P. P. Korambath,  W. Kurlancheek,  
 A. M. Lee,  M. S. Lee,  D. Liotard,  I. Lotan,  P. E. Maslen,  N. Nair,  
 D. Neuhauser,  R. Olson,  B. Peters,  J. Ritchie,  N. E. Schultz,  
 N. Shenvi,  A. C. Simmonett,  K. S. Thanthiriwatte,  Q. Wu,  W. Zhang

 Please cite Q-Chem as follows:
 Y. Shao et al., Mol. Phys. 113, 184-215 (2015)
 DOI: 10.1080/00268976.2014.952696

 Q-Chem 4.3.0 for Intel X86 Linux

 Parts of Q-Chem use Armadillo 5.200.1 (Boston Tea Smuggler).
 http://arma.sourceforge.net/

 Q-Chem begins on Wed Apr 26 13:15:54 2017  

Host: 
0

     Scratch files written to /tmp/prod_c.qcin//
 Oct1215 13750_ 19228  19214 4150   
 Parallel job on  1  processors
Processing $rem in /programs/x86_64/lib/qchem-4.3.2/config/preferences.
 MEM_TOTAL  2000 

Checking the input file for inconsistencies... 	...done.

--------------------------------------------------------------
User input:
--------------------------------------------------------------
$rem
JOBTYPE Opt
EXCHANGE HF
BASIS 6-31+G(d)
GUI=2
SOLVENT_METHOD ONSAGER
pdb_print 2
NBO TRUE
$end

$comment
product
$end

$solvent
CavityRadius    30
Dielectric     78.39
$end


$molecule
-2 1
C        3.52200       -1.27800        2.47300
O        4.59900       -1.30300        1.83000
O        3.34100       -1.58600        3.73300
C        2.33500       -0.63100        1.79800
C        1.98400       -1.87300       -0.50400
O        1.34900       -0.20700        2.50100
C        2.12700       -0.48800        0.24600
O        1.05700        0.26200       -0.13700
C        3.36100        0.25500       -0.34100
H        3.14100        0.37800       -1.44100
H        4.31400       -0.45900       -0.37600
H        3.75000        1.22500       -0.00600
H        0.82900       -2.09700       -0.30800
H        2.53400       -2.74800       -0.01400
H        2.31800       -1.80800       -1.52600
$end

--------------------------------------------------------------
 ----------------------------------------------------------------
             Standard Nuclear Orientation (Angstroms)
    I     Atom           X                Y                Z
 ----------------------------------------------------------------
    1      C       1.5993647577     0.2939649477    -0.0636083444
    2      O       1.4717752476     1.5239997604     0.1479059017
    3      O       2.7131774295    -0.3694086323    -0.2495702373
    4      C       0.3685977956    -0.5641231098     0.1155579763
    5      C      -1.5033602411     0.4330402734    -1.4549219810
    6      O       0.4890596794    -1.8256024416     0.3164057545
    7      C      -1.1196230033    -0.0713216741    -0.0059434586
    8      O      -2.0705190829    -0.9817017643     0.3420417958
    9      C      -1.3207498247     1.1093908299     0.9864475856
   10      H      -2.4100301548     1.3912446059     0.8995234154
   11      H      -0.7946307867     2.1001605835     0.5854437784
   12      H      -1.1035675305     1.0927206852     2.0620869105
   13      H      -1.7413323845    -0.6102672514    -1.9817005566
   14      H      -0.6371924413     0.8702440711    -2.0605878805
   15      H      -2.2865697953     1.1718943243    -1.4242220512
 ----------------------------------------------------------------
 Molecular Point Group                 C1    NOp =  1
 Largest Abelian Subgroup              C1    NOp =  1
 Nuclear Repulsion Energy =   444.1807725836 hartrees
 There are       35 alpha and       35 beta electrons
 Requested basis set is 6-31+G(d)
 There are 57 shells and 183 basis functions

 Total QAlloc Memory Limit   2000 MB
 Mega-Array Size        61 MB
 MEM_STATIC part        62 MB
 A cutoff of  1.0D-11 yielded   1539 shell pairs
 There are     16463 function pairs
 
 -------------------------------------------------------
 OpenMP Integral Computing Module                       
 Release: version 1.0, May 2013, Q-Chem Inc. Pittsburgh 
 -------------------------------------------------------
 Integral Job Info:
 Integral job number is                      11
 Integral operator is                         1
 short-range coefficients                     0
 long-range coefficients              100000000
 Omega coefficients                           0
 if combine SR and LR in K                    0
 Integral screening is                        0
 Integral computing path is                   2
 max size of driver memory is            800000
 size of driver memory is                593474
 size of scratch memory is              2260544
 max col of scratch BK array               1296
 max len of scratch array in speh3          155
 max len of scratch index in speh4           18
 max int batch size is                      520
 min int batch size is                       52
 fixed nKL is                                52
 max L of basis functions is                  2
 order of int derivative is                   0
 number of shells is                         57
 number of basis is                         183
 number of cartesian basis is               183
 number of contracted shell pairs          1539
 number of primitive shell pairs           5314
 maxK2 (contraction) of shell pair           36
 max number of K2 of shell pair               1
 max number of CS2 of shell pair            200
 max number of PS2 of shell pair           1200
 mem total for path MDJ                   42942
 -------------------------------------------------------
 Smallest overlap matrix eigenvalue = 2.99E-05
 Placing solute cavity origin at the center of mass
 Center of Onsager solute cavity (Angst): (   0.068369,  -0.045840,   0.014625)
 Solvent multipole matrices computed through 15th order

 Scale SEOQF with 1.000000e-01/1.000000e-01/1.000000e-01

 Standard Electronic Orientation quadrupole field applied
 Guess from superposition of atomic densities
 Warning:  Energy on first SCF cycle will be non-variational
 A restricted Hartree-Fock SCF calculation will be
 performed using Pulay DIIS extrapolation
 Kirkwood-Onsager solvation model will be applied
 SCF converges when DIIS error is below 1.0E-08
 Kirkwood-Onsager SCRF: 
 Maximum multipole order     = 15
 Solvent dielectric constant = 78.3900
 Cavity radius               = 56.6917 bohr
 Born term (E_born)          = -0.03482849 a.u. = -21.8552 kcal/mol
 ---------------------------------------
  Cycle       Energy         DIIS Error
 ---------------------------------------
    1    -493.6426976963      4.94E-02
    2    -491.7934960059      9.76E-03
    3    -491.9317394912      8.50E-03
    4    -492.1544787261      8.49E-04
    5    -492.1583761035      4.96E-04
    6    -492.1593786650      1.01E-04
    7    -492.1594985778      5.32E-05
    8    -492.1595293768      2.46E-05
    9    -492.1595355699      1.06E-05
   10    -492.1595368344      4.09E-06
   11    -492.1595370417      1.30E-06
   12    -492.1595370623      6.31E-07
   13    -492.1595370664      2.32E-07
   14    -492.1595370674      1.15E-07
   15    -492.1595370677      6.10E-08
   16    -492.1595370676      2.70E-08
   17    -492.1595370677      1.00E-08
   18    -492.1595370679      3.96E-09 Convergence criterion met
 ---------------------------------------
 SCF time:  CPU 120.03 s  wall 119.37 s
 SCF   energy in the final basis set = -492.1595370679
 Total energy in the final basis set = -492.1595370679
 
 --------------------------------------------------------------
 
                    Orbital Energies (a.u.)
 --------------------------------------------------------------
 
 Alpha MOs
 -- Occupied --
-20.256 -20.219 -20.201 -20.119 -11.046 -11.022 -10.977 -10.954
-10.935  -1.069  -1.030  -0.950  -0.918  -0.701  -0.628  -0.594
 -0.473  -0.369  -0.341  -0.321  -0.303  -0.278  -0.267  -0.247
 -0.242  -0.213  -0.194  -0.167  -0.156  -0.143  -0.103  -0.087
 -0.080  -0.020  -0.015
 -- Virtual --
  0.291   0.297   0.325   0.332   0.355   0.358   0.363   0.364
  0.371   0.389   0.396   0.401   0.407   0.424   0.432   0.442
  0.462   0.474   0.504   0.513   0.567   0.584   0.606   0.609
  0.623   0.631   0.640   0.649   0.656   0.670   0.676   0.690
  0.704   0.705   0.715   0.720   0.727   0.739   0.746   0.753
  0.770   0.785   0.798   0.813   0.818   0.826   0.848   0.892
  0.911   0.981   1.038   1.125   1.160   1.179   1.240   1.248
  1.270   1.274   1.290   1.323   1.358   1.371   1.400   1.417
  1.455   1.469   1.477   1.508   1.546   1.592   1.598   1.627
  1.636   1.668   1.694   1.771   1.808   1.835   1.856   1.881
  1.903   1.908   1.947   1.950   1.977   1.989   2.002   2.013
  2.039   2.051   2.083   2.094   2.148   2.175   2.240   2.248
  2.288   2.311   2.343   2.361   2.393   2.413   2.443   2.453
  2.492   2.503   2.544   2.550   2.573   2.592   2.609   2.632
  2.670   2.682   2.699   2.744   2.755   2.817   2.824   2.866
  2.924   2.946   3.008   3.047   3.060   3.093   3.172   3.187
  3.284   3.323   3.367   3.411   3.447   3.628   3.660   3.768
  3.823   3.866   3.905   4.850   4.908   4.990   5.022   5.086
  5.248   5.285   5.420   5.497
 --------------------------------------------------------------
 
          Ground-State Mulliken Net Atomic Charges

     Atom                 Charge (a.u.)
  ----------------------------------------
      1 C                     0.521077
      2 O                    -0.688787
      3 O                    -0.791880
      4 C                     0.294964
      5 C                    -0.739399
      6 O                    -0.518284
      7 C                     0.554271
      8 O                    -0.833943
      9 C                    -0.751295
     10 H                     0.154467
     11 H                     0.166120
     12 H                     0.161570
     13 H                     0.186017
     14 H                     0.132912
     15 H                     0.152189
  ----------------------------------------
  Sum of atomic charges =    -2.000000

 -----------------------------------------------------------------
                    Cartesian Multipole Moments
 -----------------------------------------------------------------
    Charge (ESU x 10^10)
                -9.6064
    Dipole Moment (Debye)
         X      -1.3763      Y       3.3032      Z      -1.1670
       Tot       3.7639
    Quadrupole Moments (Debye-Ang)
        XX    -110.5280     XY      -9.0739     YY     -82.8225
        XZ       4.4630     YZ       1.6963     ZZ     -62.3954
    Octopole Moments (Debye-Ang^2)
       XXX       3.9906    XXY      13.4899    XYY       3.7605
       YYY     -12.8749    XXZ       1.8972    XYZ      -4.1247
       YYZ      -5.8589    XZZ      16.2247    YZZ      -6.7761
       ZZZ      11.7941
    Hexadecapole Moments (Debye-Ang^3)
      XXXX   -1329.1190   XXXY     -31.1332   XXYY    -292.5693
      XYYY     -11.2793   YYYY    -515.8093   XXXZ      31.5469
      XXYZ       0.1711   XYYZ       3.7771   YYYZ      -1.4540
      XXZZ    -232.3002   XYZZ       6.0131   YYZZ    -126.3978
      XZZZ     -10.8451   YZZZ       3.3665   ZZZZ    -293.5949
 -----------------------------------------------------------------
 Calculating analytic gradient of the SCF energy
 Gradient of SCF Energy
            1           2           3           4           5           6
    1  -0.0926759  -0.0065098   0.0705979   0.0372916  -0.0554387  -0.0041554
    2   0.0032870   0.0354879  -0.0501181   0.1431827   0.0510423  -0.1191033
    3  -0.0190785   0.0166174  -0.0009847   0.0034511   0.0309856   0.0131467
            7           8           9          10          11          12
    1   0.0370773  -0.0197110   0.0088152  -0.0192683   0.0163547  -0.0060037
    2  -0.0015869   0.0006902  -0.0945084   0.0133569   0.0426251   0.0195332
    3  -0.0342502   0.0079939   0.0337238  -0.0060641  -0.0209788   0.0104079
           13          14          15
    1   0.0022470   0.0209979   0.0103811
    2  -0.0560895   0.0055848   0.0066161
    3  -0.0190108  -0.0175748   0.0016158
 Max gradient component =       1.432E-01
 RMS gradient           =       4.274E-02
 Gradient time:  CPU 56.31 s  wall 56.33 s
 Geometry Optimization Parameters
   NAtoms,    NIC,     NZ,  NCons,   NDum,   NFix, NCnnct, MaxDiis
       15      96       0       0       0       0       0       0


** GEOMETRY OPTIMIZATION IN DELOCALIZED INTERNAL COORDINATES **
   Searching for a Minimum

   Optimization Cycle:   1

                       Coordinates (Angstroms)
     ATOM                X               Y               Z
      1  C         1.5993647577    0.2939649477   -0.0636083444
      2  O         1.4717752476    1.5239997604    0.1479059017
      3  O         2.7131774295   -0.3694086323   -0.2495702373
      4  C         0.3685977956   -0.5641231098    0.1155579763
      5  C        -1.5033602411    0.4330402734   -1.4549219810
      6  O         0.4890596794   -1.8256024416    0.3164057545
      7  C        -1.1196230033   -0.0713216741   -0.0059434586
      8  O        -2.0705190829   -0.9817017643    0.3420417958
      9  C        -1.3207498247    1.1093908299    0.9864475856
     10  H        -2.4100301548    1.3912446059    0.8995234154
     11  H        -0.7946307867    2.1001605835    0.5854437784
     12  H        -1.1035675305    1.0927206852    2.0620869105
     13  H        -1.7413323845   -0.6102672514   -1.9817005566
     14  H        -0.6371924413    0.8702440711   -2.0605878805
     15  H        -2.2865697953    1.1718943243   -1.4242220512
   Point Group: c1    Number of degrees of freedom:    39


   Energy is   -492.159537068


 Attempting to Generate Delocalized Internal Coordinates

 39 Hessian modes will be used to form the next step
  Hessian Eigenvalues:
     0.002000    0.002000    0.002000    0.004534    0.007720    0.009651
     0.035488    0.048710    0.050482    0.058294    0.063429    0.066248
     0.078804    0.160000    0.160000    0.160000    0.160000    0.160000
     0.160000    0.174708    0.191539    0.249641    0.250000    0.250000
     0.250000    0.251367    0.252033    0.253103    0.258318    0.271943
     0.292703    0.307165    0.312475    0.339632    0.363401    0.526155
     0.645787    0.721335    0.815627

 Minimum Search - Taking Simple RFO Step
 Searching for Lamda that Minimizes Along All modes
 Value Taken    Lamda =  -0.08022536
 Calculated Step too Large.  Step scaled by  0.559493
 Step Taken.  Stepsize is  0.300000

                             Maximum     Tolerance    Cnvgd?
         Gradient           0.080938      0.000300      NO
         Displacement       0.109501      0.001200      NO
         Energy change     *********      0.000001      NO


 New Cartesian Coordinates Obtained by Inverse Iteration

 Displacement from previous Coordinates is:  0.414972
 ----------------------------------------------------------------
             Standard Nuclear Orientation (Angstroms)
    I     Atom           X                Y                Z
 ----------------------------------------------------------------
    1      C       1.5899669563     0.2835913269    -0.0638026718
    2      O       1.4571660764     1.5124487331     0.0574883220
    3      O       2.6677337097    -0.3412753408    -0.3339941065
    4      C       0.3415125021    -0.5836779077     0.1354424617
    5      C      -1.4530023058     0.4192172897    -1.4402317772
    6      O       0.4898694646    -1.7952033643     0.3492846552
    7      C      -1.1399813742    -0.0734422929     0.0188360161
    8      O      -2.0818328868    -0.9887992652     0.3486490950
    9      C      -1.3464269272     1.1332612262     0.9830904297
   10      H      -2.4202617297     1.4082713116     0.9029136807
   11      H      -0.8156399372     2.0840247309     0.6221991932
   12      H      -1.1213223580     1.0543686548     2.0480303482
   13      H      -1.6994042847    -0.5560264065    -1.9807858978
   14      H      -0.5760731346     0.8476807736    -1.9938139294
   15      H      -2.2379041061     1.1597957388    -1.4384472105
 ----------------------------------------------------------------
 Molecular Point Group                 C1    NOp =  1
 Largest Abelian Subgroup              C1    NOp =  1
 Nuclear Repulsion Energy =   447.5331085273 hartrees
 There are       35 alpha and       35 beta electrons
 Requested basis set is 6-31+G(d)
 There are 57 shells and 183 basis functions
 A cutoff of  1.0D-11 yielded   1541 shell pairs
 There are     16485 function pairs
 Smallest overlap matrix eigenvalue = 2.78E-05
 Placing solute cavity origin at the center of mass
 Center of Onsager solute cavity (Angst): (   0.057518,  -0.043103,   0.003741)
 Solvent multipole matrices computed through 15th order

 Scale SEOQF with 1.000000e-01/1.000000e-01/1.000000e-01

 Standard Electronic Orientation quadrupole field applied
 Guess MOs from SCF MO coefficient file
 Reading MOs from coefficient file
 Reading MOs from coefficient file
 A restricted Hartree-Fock SCF calculation will be
 performed using Pulay DIIS extrapolation
 Kirkwood-Onsager solvation model will be applied
 SCF converges when DIIS error is below 1.0E-08
 Kirkwood-Onsager SCRF: 
 Maximum multipole order     = 15
 Solvent dielectric constant = 78.3900
 Cavity radius               = 56.6917 bohr
 Born term (E_born)          = -0.03482849 a.u. = -21.8552 kcal/mol
Geometry optimization detected.  Setting ReadMinima to 0
Setting SaveMinima to 0
 ---------------------------------------
  Cycle       Energy         DIIS Error
 ---------------------------------------
    1    -492.2901530462      3.19E-03
    2    -492.1933197321      5.05E-04
    3    -492.1947930616      2.47E-04
    4    -492.1950641809      8.44E-05
    5    -492.1951221015      3.29E-05
    6    -492.1951313818      1.37E-05
    7    -492.1951338374      6.57E-06
    8    -492.1951346341      2.98E-06
    9    -492.1951347922      1.05E-06
   10    -492.1951348106      5.08E-07
   11    -492.1951348161      2.72E-07
   12    -492.1951348185      1.47E-07
   13    -492.1951348192      6.53E-08
   14    -492.1951348196      1.99E-08
   15    -492.1951348196      6.70E-09 Convergence criterion met
 ---------------------------------------
 SCF time:  CPU 102.44 s  wall 102.07 s
 SCF   energy in the final basis set = -492.1951348196
 Total energy in the final basis set = -492.1951348196
 
 --------------------------------------------------------------
 
                    Orbital Energies (a.u.)
 --------------------------------------------------------------
 
 Alpha MOs
 -- Occupied --
-20.252 -20.207 -20.196 -20.118 -11.034 -11.011 -10.969 -10.939
-10.926  -1.079  -1.048  -0.958  -0.919  -0.703  -0.631  -0.582
 -0.468  -0.369  -0.342  -0.326  -0.299  -0.281  -0.273  -0.251
 -0.246  -0.220  -0.200  -0.168  -0.167  -0.147  -0.100  -0.084
 -0.075  -0.016  -0.014
 -- Virtual --
  0.292   0.297   0.325   0.334   0.355   0.359   0.364   0.365
  0.371   0.390   0.399   0.408   0.411   0.424   0.431   0.442
  0.462   0.470   0.507   0.516   0.579   0.591   0.607   0.614
  0.629   0.643   0.646   0.651   0.662   0.675   0.675   0.690
  0.707   0.709   0.716   0.728   0.731   0.743   0.754   0.760
  0.771   0.788   0.805   0.816   0.823   0.842   0.853   0.895
  0.927   1.013   1.056   1.137   1.163   1.191   1.235   1.255
  1.272   1.278   1.293   1.337   1.363   1.387   1.402   1.416
  1.454   1.480   1.492   1.522   1.552   1.599   1.612   1.629
  1.642   1.678   1.712   1.776   1.827   1.843   1.865   1.888
  1.906   1.909   1.944   1.949   1.976   1.991   2.010   2.017
  2.047   2.057   2.083   2.093   2.150   2.175   2.248   2.259
  2.291   2.312   2.339   2.372   2.392   2.439   2.451   2.468
  2.503   2.506   2.553   2.576   2.588   2.611   2.630   2.657
  2.676   2.701   2.713   2.761   2.793   2.833   2.872   2.906
  2.949   2.974   3.018   3.068   3.082   3.119   3.194   3.218
  3.305   3.333   3.394   3.435   3.483   3.689   3.698   3.809
  3.840   3.911   3.931   4.874   4.925   5.014   5.041   5.099
  5.259   5.319   5.434   5.530
 --------------------------------------------------------------
 
          Ground-State Mulliken Net Atomic Charges

     Atom                 Charge (a.u.)
  ----------------------------------------
      1 C                     0.521977
      2 O                    -0.706891
      3 O                    -0.787102
      4 C                     0.309202
      5 C                    -0.720598
      6 O                    -0.509119
      7 C                     0.494139
      8 O                    -0.842031
      9 C                    -0.734190
     10 H                     0.155537
     11 H                     0.179727
     12 H                     0.157323
     13 H                     0.190349
     14 H                     0.147313
     15 H                     0.144364
  ----------------------------------------
  Sum of atomic charges =    -2.000000

 -----------------------------------------------------------------
                    Cartesian Multipole Moments
 -----------------------------------------------------------------
    Charge (ESU x 10^10)
                -9.6064
    Dipole Moment (Debye)
         X      -1.1866      Y       3.0913      Z      -0.9061
       Tot       3.4330
    Quadrupole Moments (Debye-Ang)
        XX    -109.6239     XY      -9.6003     YY     -82.1522
        XZ       5.7469     YZ       2.2387     ZZ     -62.2057
    Octopole Moments (Debye-Ang^2)
       XXX       7.3726    XXY      12.9548    XYY       3.8530
       YYY     -12.4385    XXZ       3.0852    XYZ      -3.6662
       YYZ      -5.9004    XZZ      15.8857    YZZ      -6.7875
       ZZZ       9.6082
    Hexadecapole Moments (Debye-Ang^3)
      XXXX   -1301.2507   XXXY     -35.4554   XXYY    -288.9993
      XYYY     -15.0771   YYYY    -504.8193   XXXZ      48.6650
      XXYZ       2.9027   XYYZ       8.1924   YYYZ       3.1075
      XXZZ    -229.0717   XYZZ       5.6029   YYZZ    -125.3470
      XZZZ       2.6496   YZZZ       5.0186   ZZZZ    -288.6037
 -----------------------------------------------------------------
 Calculating analytic gradient of the SCF energy
 Gradient of SCF Energy
            1           2           3           4           5           6
    1  -0.0577958  -0.0006273   0.0417745   0.0211328  -0.0411729  -0.0016624
    2   0.0006265   0.0121873  -0.0242142   0.0863993   0.0327834  -0.0658220
    3   0.0103626   0.0012871  -0.0084893  -0.0027550   0.0212398   0.0069056
            7           8           9          10          11          12
    1   0.0296668  -0.0143866   0.0017944  -0.0100830   0.0090146  -0.0038231
    2  -0.0028533   0.0001367  -0.0656169   0.0107595   0.0295389   0.0146235
    3  -0.0240114   0.0046954   0.0247011  -0.0046763  -0.0126666   0.0051196
           13          14          15
    1   0.0037343   0.0135406   0.0088931
    2  -0.0342457   0.0012825   0.0044145
    3  -0.0121188  -0.0117498   0.0021558
 Max gradient component =       8.640E-02
 RMS gradient           =       2.646E-02
 Gradient time:  CPU 57.07 s  wall 57.08 s
 Geometry Optimization Parameters
   NAtoms,    NIC,     NZ,  NCons,   NDum,   NFix, NCnnct, MaxDiis
       15      96       0       0       0       0       0       0

 Cartesian Hessian Update
 Hessian Updated using BFGS Update


** GEOMETRY OPTIMIZATION IN DELOCALIZED INTERNAL COORDINATES **
   Searching for a Minimum

   Optimization Cycle:   2

                       Coordinates (Angstroms)
     ATOM                X               Y               Z
      1  C         1.5899669563    0.2835913269   -0.0638026718
      2  O         1.4571660764    1.5124487331    0.0574883220
      3  O         2.6677337097   -0.3412753408   -0.3339941065
      4  C         0.3415125021   -0.5836779077    0.1354424617
      5  C        -1.4530023058    0.4192172897   -1.4402317772
      6  O         0.4898694646   -1.7952033643    0.3492846552
      7  C        -1.1399813742   -0.0734422929    0.0188360161
      8  O        -2.0818328868   -0.9887992652    0.3486490950
      9  C        -1.3464269272    1.1332612262    0.9830904297
     10  H        -2.4202617297    1.4082713116    0.9029136807
     11  H        -0.8156399372    2.0840247309    0.6221991932
     12  H        -1.1213223580    1.0543686548    2.0480303482
     13  H        -1.6994042847   -0.5560264065   -1.9807858978
     14  H        -0.5760731346    0.8476807736   -1.9938139294
     15  H        -2.2379041061    1.1597957388   -1.4384472105
   Point Group: c1    Number of degrees of freedom:    39


   Energy is   -492.195134820

 Hessian Updated using BFGS Update

 33 Hessian modes will be used to form the next step
  Hessian Eigenvalues:
     0.001999    0.002008    0.004537    0.007718    0.012120    0.035496
     0.048613    0.050473    0.058008    0.063120    0.068088    0.078286
     0.150999    0.162058    0.175277    0.192481    0.224546    0.249815
     0.250179    0.251328    0.252545    0.258278    0.267564    0.274299
     0.291757    0.306339    0.310023    0.340698    0.363344    0.522484
     0.608126    0.694877    0.832069

 Minimum Search - Taking Simple RFO Step
 Searching for Lamda that Minimizes Along All modes
 Value Taken    Lamda =  -0.04922896
 Calculated Step too Large.  Step scaled by  0.484011
 Step Taken.  Stepsize is  0.300000

                             Maximum     Tolerance    Cnvgd?
         Gradient           0.050805      0.000300      NO
         Displacement       0.135466      0.001200      NO
         Energy change     -0.035598      0.000001      NO


 New Cartesian Coordinates Obtained by Inverse Iteration

 Displacement from previous Coordinates is:  0.293865
 ----------------------------------------------------------------
             Standard Nuclear Orientation (Angstroms)
    I     Atom           X                Y                Z
 ----------------------------------------------------------------
    1      C       1.5648599088     0.2962238984    -0.1190265009
    2      O       1.4294099329     1.5099549330     0.0741601534
    3      O       2.6312923270    -0.3113217199    -0.3175421812
    4      C       0.3153530562    -0.5997250901     0.1284644991
    5      C      -1.4302897932     0.3995828027    -1.4378430191
    6      O       0.4989320504    -1.7646321690     0.3569467154
    7      C      -1.1620987315    -0.0740756803     0.0307633036
    8      O      -2.0902200371    -0.9867451436     0.3707492125
    9      C      -1.3423712344     1.1574495651     0.9673960278
   10      H      -2.4041896890     1.4275065690     0.9119689050
   11      H      -0.8005292993     2.0560084562     0.6267759641
   12      H      -1.0919752028     1.0076259516     2.0161923705
   13      H      -1.6946747800    -0.5154274238    -1.9826180329
   14      H      -0.5508629499     0.8193728798    -1.9521554558
   15      H      -2.2182358936     1.1424373789    -1.4593733532
 ----------------------------------------------------------------
 Molecular Point Group                 C1    NOp =  1
 Largest Abelian Subgroup              C1    NOp =  1
 Nuclear Repulsion Energy =   450.9630549451 hartrees
 There are       35 alpha and       35 beta electrons
 Requested basis set is 6-31+G(d)
 There are 57 shells and 183 basis functions
 A cutoff of  1.0D-11 yielded   1545 shell pairs
 There are     16504 function pairs
 Smallest overlap matrix eigenvalue = 2.71E-05
 Placing solute cavity origin at the center of mass
 Center of Onsager solute cavity (Angst): (   0.046255,  -0.036135,   0.005614)
 Solvent multipole matrices computed through 15th order

 Scale SEOQF with 1.000000e-01/1.000000e-01/1.000000e-01

 Standard Electronic Orientation quadrupole field applied
 Guess MOs from SCF MO coefficient file
 Reading MOs from coefficient file
 Reading MOs from coefficient file
 A restricted Hartree-Fock SCF calculation will be
 performed using Pulay DIIS extrapolation
 Kirkwood-Onsager solvation model will be applied
 SCF converges when DIIS error is below 1.0E-08
 Kirkwood-Onsager SCRF: 
 Maximum multipole order     = 15
 Solvent dielectric constant = 78.3900
 Cavity radius               = 56.6917 bohr
 Born term (E_born)          = -0.03482849 a.u. = -21.8552 kcal/mol
Geometry optimization detected.  Setting ReadMinima to 0
Setting SaveMinima to 0
 ---------------------------------------
  Cycle       Energy         DIIS Error
 ---------------------------------------
    1    -492.2908993144      2.88E-03
    2    -492.2086184659      4.16E-04
    3    -492.2096754204      2.16E-04
    4    -492.2098790146      8.44E-05
    5    -492.2099434403      3.36E-05
    6    -492.2099598690      1.79E-05
    7    -492.2099677591      9.65E-06
    8    -492.2099707197      3.87E-06
    9    -492.2099710909      1.56E-06
   10    -492.2099711375      6.69E-07
   11    -492.2099711459      2.93E-07
   12    -492.2099711472      9.40E-08
   13    -492.2099711473      4.46E-08
   14    -492.2099711472      1.13E-08
   15    -492.2099711474      3.22E-09 Convergence criterion met
 ---------------------------------------
 SCF time:  CPU 103.65 s  wall 103.16 s
 SCF   energy in the final basis set = -492.2099711474
 Total energy in the final basis set = -492.2099711474
 
 --------------------------------------------------------------
 
                    Orbital Energies (a.u.)
 --------------------------------------------------------------
 
 Alpha MOs
 -- Occupied --
-20.249 -20.198 -20.193 -20.116 -11.024 -11.000 -10.961 -10.928
-10.914  -1.093  -1.061  -0.965  -0.921  -0.704  -0.635  -0.570
 -0.462  -0.369  -0.343  -0.329  -0.298  -0.283  -0.279  -0.258
 -0.246  -0.225  -0.206  -0.174  -0.170  -0.151  -0.099  -0.083
 -0.068  -0.013  -0.008
 -- Virtual --
  0.292   0.298   0.325   0.334   0.355   0.360   0.364   0.366
  0.371   0.390   0.400   0.409   0.416   0.429   0.433   0.441
  0.463   0.466   0.512   0.517   0.584   0.596   0.611   0.622
  0.634   0.644   0.655   0.660   0.666   0.673   0.682   0.694
  0.707   0.712   0.720   0.732   0.736   0.745   0.761   0.766
  0.773   0.791   0.806   0.821   0.828   0.850   0.858   0.900
  0.936   1.035   1.066   1.142   1.168   1.193   1.230   1.266
  1.273   1.287   1.299   1.349   1.365   1.394   1.400   1.429
  1.455   1.495   1.503   1.534   1.561   1.606   1.625   1.643
  1.651   1.699   1.734   1.776   1.819   1.844   1.871   1.889
  1.909   1.916   1.941   1.950   1.978   1.995   2.012   2.023
  2.048   2.057   2.091   2.111   2.146   2.173   2.258   2.267
  2.291   2.323   2.338   2.381   2.393   2.445   2.460   2.492
  2.508   2.511   2.566   2.589   2.609   2.617   2.648   2.664
  2.694   2.701   2.727   2.788   2.798   2.877   2.917   2.945
  2.964   3.003   3.022   3.079   3.122   3.143   3.212   3.231
  3.325   3.350   3.421   3.464   3.519   3.719   3.745   3.817
  3.864   3.947   3.971   4.887   4.940   5.030   5.062   5.119
  5.270   5.329   5.456   5.556
 --------------------------------------------------------------
 
          Ground-State Mulliken Net Atomic Charges

     Atom                 Charge (a.u.)
  ----------------------------------------
      1 C                     0.495197
      2 O                    -0.715017
      3 O                    -0.766900
      4 C                     0.355254
      5 C                    -0.687034
      6 O                    -0.505820
      7 C                     0.393105
      8 O                    -0.849269
      9 C                    -0.709561
     10 H                     0.152623
     11 H                     0.195638
     12 H                     0.156828
     13 H                     0.193093
     14 H                     0.152726
     15 H                     0.139138
  ----------------------------------------
  Sum of atomic charges =    -2.000000

 -----------------------------------------------------------------
                    Cartesian Multipole Moments
 -----------------------------------------------------------------
    Charge (ESU x 10^10)
                -9.6064
    Dipole Moment (Debye)
         X      -0.9655      Y       2.8654      Z      -1.2233
       Tot       3.2618
    Quadrupole Moments (Debye-Ang)
        XX    -108.8674     XY      -9.8927     YY     -81.5445
        XZ       5.6126     YZ       2.2267     ZZ     -61.9919
    Octopole Moments (Debye-Ang^2)
       XXX      10.2643    XXY      12.2287    XYY       4.2092
       YYY     -12.4099    XXZ       1.6331    XYZ      -4.0675
       YYZ      -5.9360    XZZ      16.2353    YZZ      -6.9695
       ZZZ       8.7493
    Hexadecapole Moments (Debye-Ang^3)
      XXXX   -1275.6714   XXXY     -40.1683   XXYY    -285.1123
      XYYY     -18.9387   YYYY    -495.7434   XXXZ      50.0281
      XXYZ       3.3657   XYYZ       8.6552   YYYZ       4.1118
      XXZZ    -225.2715   XYZZ       4.9632   YYZZ    -124.1676
      XZZZ       5.5156   YZZZ       4.7279   ZZZZ    -285.3244
 -----------------------------------------------------------------
 Calculating analytic gradient of the SCF energy
 Gradient of SCF Energy
            1           2           3           4           5           6
    1  -0.0268281   0.0028034   0.0094838   0.0165311  -0.0265430  -0.0030567
    2   0.0025825  -0.0049304  -0.0051594   0.0204549   0.0118048  -0.0078813
    3  -0.0233894   0.0092564   0.0104116   0.0121576   0.0072511  -0.0030144
            7           8           9          10          11          12
    1   0.0195657  -0.0069754   0.0012206  -0.0016963   0.0002572  -0.0015456
    2  -0.0023719   0.0015003  -0.0329007   0.0069072   0.0112548   0.0085440
    3  -0.0174249   0.0031681   0.0140160  -0.0038208  -0.0051347   0.0020824
           13          14          15
    1   0.0056861   0.0050478   0.0060493
    2  -0.0096013  -0.0029325   0.0027290
    3  -0.0019661  -0.0052764   0.0016834
 Max gradient component =       3.290E-02
 RMS gradient           =       1.155E-02
 Gradient time:  CPU 57.37 s  wall 57.42 s
 Geometry Optimization Parameters
   NAtoms,    NIC,     NZ,  NCons,   NDum,   NFix, NCnnct, MaxDiis
       15      96       0       0       0       0       0       0

 Cartesian Hessian Update
 Hessian Updated using BFGS Update


** GEOMETRY OPTIMIZATION IN DELOCALIZED INTERNAL COORDINATES **
   Searching for a Minimum

   Optimization Cycle:   3

                       Coordinates (Angstroms)
     ATOM                X               Y               Z
      1  C         1.5648599088    0.2962238984   -0.1190265009
      2  O         1.4294099329    1.5099549330    0.0741601534
      3  O         2.6312923270   -0.3113217199   -0.3175421812
      4  C         0.3153530562   -0.5997250901    0.1284644991
      5  C        -1.4302897932    0.3995828027   -1.4378430191
      6  O         0.4989320504   -1.7646321690    0.3569467154
      7  C        -1.1620987315   -0.0740756803    0.0307633036
      8  O        -2.0902200371   -0.9867451436    0.3707492125
      9  C        -1.3423712344    1.1574495651    0.9673960278
     10  H        -2.4041896890    1.4275065690    0.9119689050
     11  H        -0.8005292993    2.0560084562    0.6267759641
     12  H        -1.0919752028    1.0076259516    2.0161923705
     13  H        -1.6946747800   -0.5154274238   -1.9826180329
     14  H        -0.5508629499    0.8193728798   -1.9521554558
     15  H        -2.2182358936    1.1424373789   -1.4593733532
   Point Group: c1    Number of degrees of freedom:    39


   Energy is   -492.209971147

 Hessian Updated using BFGS Update

 36 Hessian modes will be used to form the next step
  Hessian Eigenvalues:
     0.001996    0.002000    0.002005    0.004539    0.007716    0.024417
     0.035496    0.049350    0.050491    0.058802    0.063619    0.066717
     0.079532    0.149899    0.160023    0.161805    0.173958    0.192156
     0.243693    0.249901    0.250001    0.251161    0.251584    0.255568
     0.260950    0.266943    0.273485    0.289906    0.303280    0.312833
     0.340719    0.363266    0.523248    0.642328    0.739870    0.857731

 Minimum Search - Taking Simple RFO Step
 Searching for Lamda that Minimizes Along All modes
 Value Taken    Lamda =  -0.02753397
 Calculated Step too Large.  Step scaled by  0.426271
 Step Taken.  Stepsize is  0.300000

                             Maximum     Tolerance    Cnvgd?
         Gradient           0.018829      0.000300      NO
         Displacement       0.104692      0.001200      NO
         Energy change     -0.014836      0.000001      NO


 New Cartesian Coordinates Obtained by Inverse Iteration

 Displacement from previous Coordinates is:  0.468822
 ----------------------------------------------------------------
             Standard Nuclear Orientation (Angstroms)
    I     Atom           X                Y                Z
 ----------------------------------------------------------------
    1      C       1.5529530918     0.2994076212    -0.1016555449
    2      O       1.3765666454     1.5248949128    -0.0430615682
    3      O       2.5800733524    -0.2984461323    -0.4236023572
    4      C       0.2939444125    -0.6133844711     0.1661080375
    5      C      -1.3788702080     0.3969546124    -1.4288823856
    6      O       0.4898728500    -1.7587839062     0.4204283664
    7      C      -1.1795842853    -0.0714201638     0.0526584196
    8      O      -2.1079150722    -0.9829771876     0.3718053945
    9      C      -1.3562813865     1.1697788990     0.9743824415
   10      H      -2.4139743284     1.4330335496     0.9181226829
   11      H      -0.7887176150     2.0345971997     0.6615598379
   12      H      -1.1131821181     0.9553589791     2.0142627635
   13      H      -1.6435400603    -0.4858281742    -1.9934488898
   14      H      -0.4846756689     0.8229301369    -1.8894552523
   15      H      -2.1722699451     1.1381193324    -1.4843633373
 ----------------------------------------------------------------
 Molecular Point Group                 C1    NOp =  1
 Largest Abelian Subgroup              C1    NOp =  1
 Nuclear Repulsion Energy =   452.2300557232 hartrees
 There are       35 alpha and       35 beta electrons
 Requested basis set is 6-31+G(d)
 There are 57 shells and 183 basis functions
 A cutoff of  1.0D-11 yielded   1547 shell pairs
 There are     16549 function pairs
 Smallest overlap matrix eigenvalue = 2.59E-05
 Placing solute cavity origin at the center of mass
 Center of Onsager solute cavity (Angst): (   0.030054,  -0.031662,  -0.004833)
 Solvent multipole matrices computed through 15th order

 Scale SEOQF with 1.000000e-01/1.000000e-01/1.000000e-01

 Standard Electronic Orientation quadrupole field applied
 Guess MOs from SCF MO coefficient file
 Reading MOs from coefficient file
 Reading MOs from coefficient file
 A restricted Hartree-Fock SCF calculation will be
 performed using Pulay DIIS extrapolation
 Kirkwood-Onsager solvation model will be applied
 SCF converges when DIIS error is below 1.0E-08
 Kirkwood-Onsager SCRF: 
 Maximum multipole order     = 15
 Solvent dielectric constant = 78.3900
 Cavity radius               = 56.6917 bohr
 Born term (E_born)          = -0.03482849 a.u. = -21.8552 kcal/mol
Geometry optimization detected.  Setting ReadMinima to 0
Setting SaveMinima to 0
 ---------------------------------------
  Cycle       Energy         DIIS Error
 ---------------------------------------
    1    -492.2300431028      3.11E-03
    2    -492.2132469551      5.08E-04
    3    -492.2151649366      2.34E-04
    4    -492.2154844102      1.12E-04
    5    -492.2155869799      3.89E-05
    6    -492.2156056861      2.00E-05
    7    -492.2156156372      8.43E-06
    8    -492.2156174600      3.76E-06
    9    -492.2156177391      1.83E-06
   10    -492.2156178295      8.65E-07
   11    -492.2156178482      3.55E-07
   12    -492.2156178505      1.12E-07
   13    -492.2156178508      5.07E-08
   14    -492.2156178509      1.45E-08
   15    -492.2156178508      4.44E-09 Convergence criterion met
 ---------------------------------------
 SCF time:  CPU 103.75 s  wall 103.49 s
 SCF   energy in the final basis set = -492.2156178508
 Total energy in the final basis set = -492.2156178508
 
 --------------------------------------------------------------
 
                    Orbital Energies (a.u.)
 --------------------------------------------------------------
 
 Alpha MOs
 -- Occupied --
-20.248 -20.196 -20.195 -20.116 -11.023 -10.997 -10.958 -10.920
-10.910  -1.097  -1.064  -0.969  -0.922  -0.704  -0.636  -0.562
 -0.457  -0.369  -0.344  -0.329  -0.296  -0.284  -0.281  -0.265
 -0.242  -0.229  -0.207  -0.176  -0.171  -0.153  -0.100  -0.085
 -0.066  -0.012  -0.004
 -- Virtual --
  0.295   0.299   0.325   0.336   0.355   0.361   0.365   0.368
  0.371   0.391   0.400   0.409   0.415   0.427   0.439   0.440
  0.462   0.464   0.513   0.521   0.591   0.596   0.607   0.620
  0.636   0.650   0.659   0.659   0.669   0.676   0.680   0.692
  0.710   0.714   0.718   0.735   0.737   0.747   0.763   0.767
  0.775   0.792   0.814   0.820   0.827   0.862   0.864   0.892
  0.939   1.040   1.070   1.147   1.170   1.201   1.222   1.273
  1.276   1.285   1.305   1.357   1.363   1.383   1.412   1.423
  1.454   1.498   1.506   1.541   1.567   1.602   1.616   1.649
  1.664   1.705   1.740   1.786   1.840   1.857   1.869   1.903
  1.909   1.917   1.940   1.950   1.973   1.996   2.009   2.023
  2.049   2.082   2.083   2.100   2.144   2.180   2.256   2.262
  2.290   2.314   2.338   2.383   2.391   2.452   2.470   2.494
  2.509   2.512   2.565   2.584   2.611   2.630   2.654   2.667
  2.703   2.712   2.727   2.798   2.825   2.859   2.936   2.956
  2.970   3.010   3.029   3.091   3.100   3.164   3.226   3.242
  3.335   3.344   3.430   3.480   3.530   3.738   3.745   3.824
  3.864   3.950   3.979   4.900   4.949   5.044   5.072   5.126
  5.267   5.325   5.456   5.557
 --------------------------------------------------------------
 
          Ground-State Mulliken Net Atomic Charges

     Atom                 Charge (a.u.)
  ----------------------------------------
      1 C                     0.499718
      2 O                    -0.729585
      3 O                    -0.754750
      4 C                     0.357353
      5 C                    -0.681308
      6 O                    -0.505121
      7 C                     0.363919
      8 O                    -0.850174
      9 C                    -0.705000
     10 H                     0.153680
     11 H                     0.205165
     12 H                     0.154743
     13 H                     0.190170
     14 H                     0.168740
     15 H                     0.132448
  ----------------------------------------
  Sum of atomic charges =    -2.000000

 -----------------------------------------------------------------
                    Cartesian Multipole Moments
 -----------------------------------------------------------------
    Charge (ESU x 10^10)
                -9.6064
    Dipole Moment (Debye)
         X      -0.6752      Y       2.7651      Z      -0.7689
       Tot       2.9484
    Quadrupole Moments (Debye-Ang)
        XX    -107.6426     XY      -9.9575     YY     -81.5699
        XZ       7.0260     YZ       3.0288     ZZ     -62.4354
    Octopole Moments (Debye-Ang^2)
       XXX      13.8218    XXY      12.2874    XYY       4.0308
       YYY     -12.3513    XXZ       3.7718    XYZ      -3.0139
       YYZ      -6.0855    XZZ      15.5270    YZZ      -6.8455
       ZZZ       7.3987
    Hexadecapole Moments (Debye-Ang^3)
      XXXX   -1242.0979   XXXY     -41.5513   XXYY    -281.5391
      XYYY     -20.5534   YYYY    -495.9215   XXXZ      67.5056
      XXYZ       6.9399   XYYZ      13.3146   YYYZ      11.2885
      XXZZ    -223.6605   XYZZ       4.8160   YYZZ    -126.0521
      XZZZ      18.0416   YZZZ       8.6148   ZZZZ    -289.1867
 -----------------------------------------------------------------
 Calculating analytic gradient of the SCF energy
 Gradient of SCF Energy
            1           2           3           4           5           6
    1   0.0046560  -0.0037275  -0.0066049   0.0069340  -0.0160255  -0.0036605
    2  -0.0049813  -0.0011247   0.0020554  -0.0086596   0.0003957   0.0138967
    3   0.0130161  -0.0049250  -0.0021903   0.0014423  -0.0001720  -0.0060581
            7           8           9          10          11          12
    1   0.0122102  -0.0028288   0.0018916   0.0005241  -0.0045481   0.0001284
    2   0.0003039   0.0012588  -0.0099371   0.0034940  -0.0004261   0.0034817
    3  -0.0056981   0.0012916   0.0053727  -0.0031337  -0.0008478   0.0005300
           13          14          15
    1   0.0052559   0.0019703   0.0038248
    2   0.0019164  -0.0035812   0.0019074
    3   0.0026970  -0.0023662   0.0010415
 Max gradient component =       1.603E-02
 RMS gradient           =       5.566E-03
 Gradient time:  CPU 57.34 s  wall 57.35 s
 Geometry Optimization Parameters
   NAtoms,    NIC,     NZ,  NCons,   NDum,   NFix, NCnnct, MaxDiis
       15      96       0       0       0       0       0       0

 Cartesian Hessian Update
 Hessian Updated using BFGS Update


** GEOMETRY OPTIMIZATION IN DELOCALIZED INTERNAL COORDINATES **
   Searching for a Minimum

   Optimization Cycle:   4

                       Coordinates (Angstroms)
     ATOM                X               Y               Z
      1  C         1.5529530918    0.2994076212   -0.1016555449
      2  O         1.3765666454    1.5248949128   -0.0430615682
      3  O         2.5800733524   -0.2984461323   -0.4236023572
      4  C         0.2939444125   -0.6133844711    0.1661080375
      5  C        -1.3788702080    0.3969546124   -1.4288823856
      6  O         0.4898728500   -1.7587839062    0.4204283664
      7  C        -1.1795842853   -0.0714201638    0.0526584196
      8  O        -2.1079150722   -0.9829771876    0.3718053945
      9  C        -1.3562813865    1.1697788990    0.9743824415
     10  H        -2.4139743284    1.4330335496    0.9181226829
     11  H        -0.7887176150    2.0345971997    0.6615598379
     12  H        -1.1131821181    0.9553589791    2.0142627635
     13  H        -1.6435400603   -0.4858281742   -1.9934488898
     14  H        -0.4846756689    0.8229301369   -1.8894552523
     15  H        -2.1722699451    1.1381193324   -1.4843633373
   Point Group: c1    Number of degrees of freedom:    39


   Energy is   -492.215617851

 Hessian Updated using BFGS Update

 37 Hessian modes will be used to form the next step
  Hessian Eigenvalues:
     0.001996    0.002000    0.002003    0.004542    0.007709    0.035493
     0.048978    0.050360    0.053879    0.061730    0.065489    0.078258
     0.125282    0.149418    0.160017    0.160139    0.161705    0.176665
     0.193106    0.244180    0.249918    0.250754    0.251396    0.252989
     0.256589    0.262153    0.273048    0.273581    0.287697    0.301844
     0.312982    0.340771    0.363213    0.523286    0.648896    0.774428
     0.863799

 Minimum Search - Taking Simple RFO Step
 Searching for Lamda that Minimizes Along All modes
 Value Taken    Lamda =  -0.00681808
 Calculated Step too Large.  Step scaled by  0.517250
 Step Taken.  Stepsize is  0.300000

                             Maximum     Tolerance    Cnvgd?
         Gradient           0.010966      0.000300      NO
         Displacement       0.136733      0.001200      NO
         Energy change     -0.005647      0.000001      NO


 New Cartesian Coordinates Obtained by Inverse Iteration

 Displacement from previous Coordinates is:  0.447170
 ----------------------------------------------------------------
             Standard Nuclear Orientation (Angstroms)
    I     Atom           X                Y                Z
 ----------------------------------------------------------------
    1      C       1.5514492937     0.2834011626    -0.1701782980
    2      O       1.4082849090     1.5147571724    -0.1370938332
    3      O       2.5693964464    -0.3414683688    -0.4747711557
    4      C       0.2835647947    -0.6045610120     0.1869813899
    5      C      -1.3492375289     0.4088235810    -1.4215916078
    6      O       0.4858458833    -1.7332987311     0.5213674734
    7      C      -1.1936732652    -0.0649266716     0.0635697097
    8      O      -2.1141396066    -0.9911769009     0.3564408721
    9      C      -1.3828978534     1.1762373581     0.9854931058
   10      H      -2.4434197001     1.4242663884     0.9359017524
   11      H      -0.8005411768     2.0402530284     0.6986505166
   12      H      -1.1472426715     0.9234029779     2.0183514511
   13      H      -1.5639974716    -0.4721706003    -2.0151442222
   14      H      -0.4656140889     0.8965047165    -1.8336473051
   15      H      -2.1833782997     1.1041911074    -1.4994712406
 ----------------------------------------------------------------
 Molecular Point Group                 C1    NOp =  1
 Largest Abelian Subgroup              C1    NOp =  1
 Nuclear Repulsion Energy =   451.2761076319 hartrees
 There are       35 alpha and       35 beta electrons
 Requested basis set is 6-31+G(d)
 There are 57 shells and 183 basis functions
 A cutoff of  1.0D-11 yielded   1546 shell pairs
 There are     16545 function pairs
 Smallest overlap matrix eigenvalue = 2.56E-05
 Placing solute cavity origin at the center of mass
 Center of Onsager solute cavity (Angst): (   0.029357,  -0.034305,  -0.013256)
 Solvent multipole matrices computed through 15th order

 Scale SEOQF with 1.000000e-01/1.000000e-01/1.000000e-01

 Standard Electronic Orientation quadrupole field applied
 Guess MOs from SCF MO coefficient file
 Reading MOs from coefficient file
 Reading MOs from coefficient file
 A restricted Hartree-Fock SCF calculation will be
 performed using Pulay DIIS extrapolation
 Kirkwood-Onsager solvation model will be applied
 SCF converges when DIIS error is below 1.0E-08
 Kirkwood-Onsager SCRF: 
 Maximum multipole order     = 15
 Solvent dielectric constant = 78.3900
 Cavity radius               = 56.6917 bohr
 Born term (E_born)          = -0.03482849 a.u. = -21.8552 kcal/mol
Geometry optimization detected.  Setting ReadMinima to 0
Setting SaveMinima to 0
 ---------------------------------------
  Cycle       Energy         DIIS Error
 ---------------------------------------
    1    -492.2063211555      2.09E-03
    2    -492.2171150279      3.17E-04
    3    -492.2179402570      1.35E-04
    4    -492.2180779094      6.88E-05
    5    -492.2181210533      2.49E-05
    6    -492.2181296226      1.26E-05
    7    -492.2181324976      4.82E-06
    8    -492.2181329033      2.62E-06
    9    -492.2181330405      1.36E-06
   10    -492.2181330953      5.13E-07
   11    -492.2181331017      2.13E-07
   12    -492.2181331023      6.59E-08
   13    -492.2181331024      2.30E-08
   14    -492.2181331023      7.58E-09 Convergence criterion met
 ---------------------------------------
 SCF time:  CPU 97.35 s  wall 96.84 s
 SCF   energy in the final basis set = -492.2181331023
 Total energy in the final basis set = -492.2181331023
 
 --------------------------------------------------------------
 
                    Orbital Energies (a.u.)
 --------------------------------------------------------------
 
 Alpha MOs
 -- Occupied --
-20.248 -20.196 -20.196 -20.118 -11.024 -10.999 -10.960 -10.919
-10.914  -1.094  -1.063  -0.968  -0.924  -0.706  -0.638  -0.560
 -0.456  -0.368  -0.343  -0.329  -0.295  -0.284  -0.282  -0.268
 -0.240  -0.232  -0.206  -0.177  -0.173  -0.154  -0.100  -0.085
 -0.067  -0.014  -0.005
 -- Virtual --
  0.295   0.298   0.325   0.336   0.354   0.361   0.365   0.368
  0.372   0.391   0.399   0.409   0.416   0.427   0.439   0.440
  0.460   0.465   0.515   0.520   0.590   0.596   0.606   0.623
  0.637   0.647   0.652   0.660   0.669   0.676   0.681   0.688
  0.711   0.713   0.716   0.733   0.735   0.746   0.760   0.764
  0.774   0.791   0.815   0.818   0.827   0.860   0.867   0.889
  0.935   1.041   1.068   1.148   1.169   1.193   1.215   1.272
  1.277   1.289   1.306   1.353   1.360   1.372   1.411   1.425
  1.447   1.493   1.506   1.544   1.562   1.602   1.618   1.642
  1.673   1.704   1.734   1.791   1.829   1.857   1.872   1.900
  1.910   1.920   1.944   1.951   1.970   1.996   2.010   2.024
  2.045   2.080   2.085   2.104   2.131   2.176   2.254   2.258
  2.287   2.311   2.332   2.381   2.384   2.457   2.472   2.494
  2.506   2.511   2.565   2.579   2.610   2.623   2.647   2.665
  2.704   2.715   2.723   2.802   2.819   2.861   2.932   2.946
  2.966   3.005   3.019   3.090   3.095   3.163   3.224   3.234
  3.327   3.345   3.424   3.482   3.522   3.724   3.736   3.820
  3.864   3.941   3.971   4.897   4.947   5.039   5.078   5.116
  5.260   5.325   5.453   5.546
 --------------------------------------------------------------
 
          Ground-State Mulliken Net Atomic Charges

     Atom                 Charge (a.u.)
  ----------------------------------------
      1 C                     0.496485
      2 O                    -0.734041
      3 O                    -0.752471
      4 C                     0.353320
      5 C                    -0.685283
      6 O                    -0.508987
      7 C                     0.385904
      8 O                    -0.849244
      9 C                    -0.716458
     10 H                     0.156395
     11 H                     0.200949
     12 H                     0.157776
     13 H                     0.186047
     14 H                     0.178092
     15 H                     0.131514
  ----------------------------------------
  Sum of atomic charges =    -2.000000

 -----------------------------------------------------------------
                    Cartesian Multipole Moments
 -----------------------------------------------------------------
    Charge (ESU x 10^10)
                -9.6064
    Dipole Moment (Debye)
         X      -0.7835      Y       2.8727      Z      -0.6400
       Tot       3.0456
    Quadrupole Moments (Debye-Ang)
        XX    -107.6982     XY      -9.8081     YY     -81.3963
        XZ       7.4073     YZ       3.7732     ZZ     -62.9104
    Octopole Moments (Debye-Ang^2)
       XXX      13.9528    XXY      12.8893    XYY       3.9439
       YYY     -12.9300    XXZ       5.2721    XYZ      -2.3229
       YYZ      -6.0860    XZZ      14.8138    YZZ      -6.3337
       ZZZ       6.8944
    Hexadecapole Moments (Debye-Ang^3)
      XXXX   -1242.6949   XXXY     -38.9537   XXYY    -282.9728
      XYYY     -18.4443   YYYY    -490.9014   XXXZ      78.3653
      XXYZ       8.9608   XYYZ      16.9307   YYYZ      18.8557
      XXZZ    -226.1790   XYZZ       5.9742   YYZZ    -128.0839
      XZZZ      26.7338   YZZZ      13.5610   ZZZZ    -295.7230
 -----------------------------------------------------------------
 Calculating analytic gradient of the SCF energy
 Gradient of SCF Energy
            1           2           3           4           5           6
    1   0.0012480   0.0006455  -0.0024235   0.0019204  -0.0084629  -0.0018851
    2  -0.0025088  -0.0003497   0.0021054  -0.0030633  -0.0008501   0.0035795
    3   0.0049198  -0.0035728   0.0001224   0.0007086  -0.0000593  -0.0043587
            7           8           9          10          11          12
    1   0.0069687  -0.0019627  -0.0001677  -0.0001041  -0.0033614   0.0002887
    2   0.0027825  -0.0024879  -0.0012232   0.0009646  -0.0010542   0.0011813
    3   0.0012475   0.0002946   0.0016320  -0.0013954   0.0003800  -0.0005174
           13          14          15
    1   0.0023401   0.0019547   0.0030013
    2   0.0013947  -0.0019349   0.0014642
    3   0.0017551  -0.0017571   0.0006008
 Max gradient component =       8.463E-03
 RMS gradient           =       2.578E-03
 Gradient time:  CPU 57.26 s  wall 57.25 s
 Geometry Optimization Parameters
   NAtoms,    NIC,     NZ,  NCons,   NDum,   NFix, NCnnct, MaxDiis
       15      96       0       0       0       0       0       0

 Cartesian Hessian Update
 Hessian Updated using BFGS Update


** GEOMETRY OPTIMIZATION IN DELOCALIZED INTERNAL COORDINATES **
   Searching for a Minimum

   Optimization Cycle:   5

                       Coordinates (Angstroms)
     ATOM                X               Y               Z
      1  C         1.5514492937    0.2834011626   -0.1701782980
      2  O         1.4082849090    1.5147571724   -0.1370938332
      3  O         2.5693964464   -0.3414683688   -0.4747711557
      4  C         0.2835647947   -0.6045610120    0.1869813899
      5  C        -1.3492375289    0.4088235810   -1.4215916078
      6  O         0.4858458833   -1.7332987311    0.5213674734
      7  C        -1.1936732652   -0.0649266716    0.0635697097
      8  O        -2.1141396066   -0.9911769009    0.3564408721
      9  C        -1.3828978534    1.1762373581    0.9854931058
     10  H        -2.4434197001    1.4242663884    0.9359017524
     11  H        -0.8005411768    2.0402530284    0.6986505166
     12  H        -1.1472426715    0.9234029779    2.0183514511
     13  H        -1.5639974716   -0.4721706003   -2.0151442222
     14  H        -0.4656140889    0.8965047165   -1.8336473051
     15  H        -2.1833782997    1.1041911074   -1.4994712406
   Point Group: c1    Number of degrees of freedom:    39


   Energy is   -492.218133102

 Hessian Updated using BFGS Update

 38 Hessian modes will be used to form the next step
  Hessian Eigenvalues:
     0.001763    0.002001    0.003075    0.004724    0.006866    0.035431
     0.043275    0.050535    0.055958    0.061083    0.073402    0.077727
     0.128961    0.149637    0.160015    0.160034    0.160887    0.161737
     0.181385    0.198837    0.243754    0.249920    0.251363    0.252640
     0.254584    0.256623    0.270444    0.272281    0.283543    0.293924
     0.308532    0.326193    0.342065    0.363802    0.526778    0.646944
     0.780515    0.862200

 Minimum Search - Taking Simple RFO Step
 Searching for Lamda that Minimizes Along All modes
 Value Taken    Lamda =  -0.00454669
 Calculated Step too Large.  Step scaled by  0.441243
 Step Taken.  Stepsize is  0.300000

                             Maximum     Tolerance    Cnvgd?
         Gradient           0.005044      0.000300      NO
         Displacement       0.149560      0.001200      NO
         Energy change     -0.002515      0.000001      NO


 New Cartesian Coordinates Obtained by Inverse Iteration

 Displacement from previous Coordinates is:  0.329410
 ----------------------------------------------------------------
             Standard Nuclear Orientation (Angstroms)
    I     Atom           X                Y                Z
 ----------------------------------------------------------------
    1      C       1.5404763936     0.2886374718    -0.1665696478
    2      O       1.4066317616     1.5168597296    -0.0569557961
    3      O       2.5573379680    -0.3254758924    -0.5018022432
    4      C       0.2707900560    -0.6119347391     0.1761137187
    5      C      -1.3571345856     0.4020231619    -1.4315220800
    6      O       0.4831756703    -1.7243878909     0.5662778971
    7      C      -1.2077150207    -0.0697477903     0.0551795743
    8      O      -2.1299533105    -0.9867325047     0.3599626318
    9      C      -1.3613667221     1.1810990538     0.9709770636
   10      H      -2.4148860805     1.4553691912     0.9348865674
   11      H      -0.7398762348     2.0224098690     0.6880500284
   12      H      -1.1284402023     0.9038665978     1.9986868930
   13      H      -1.5317842764    -0.4814565517    -2.0408417371
   14      H      -0.5002225050     0.9470301509    -1.8208376127
   15      H      -2.2326332470     1.0466753513    -1.5167466488
 ----------------------------------------------------------------
 Molecular Point Group                 C1    NOp =  1
 Largest Abelian Subgroup              C1    NOp =  1
 Nuclear Repulsion Energy =   451.0720336413 hartrees
 There are       35 alpha and       35 beta electrons
 Requested basis set is 6-31+G(d)
 There are 57 shells and 183 basis functions
 A cutoff of  1.0D-11 yielded   1548 shell pairs
 There are     16550 function pairs
 Smallest overlap matrix eigenvalue = 2.59E-05
 Placing solute cavity origin at the center of mass
 Center of Onsager solute cavity (Angst): (   0.023604,  -0.031433,  -0.004942)
 Solvent multipole matrices computed through 15th order

 Scale SEOQF with 1.000000e-01/1.000000e-01/1.000000e-01

 Standard Electronic Orientation quadrupole field applied
 Guess MOs from SCF MO coefficient file
 Reading MOs from coefficient file
 Reading MOs from coefficient file
 A restricted Hartree-Fock SCF calculation will be
 performed using Pulay DIIS extrapolation
 Kirkwood-Onsager solvation model will be applied
 SCF converges when DIIS error is below 1.0E-08
 Kirkwood-Onsager SCRF: 
 Maximum multipole order     = 15
 Solvent dielectric constant = 78.3900
 Cavity radius               = 56.6917 bohr
 Born term (E_born)          = -0.03482849 a.u. = -21.8552 kcal/mol
Geometry optimization detected.  Setting ReadMinima to 0
Setting SaveMinima to 0
 ---------------------------------------
  Cycle       Energy         DIIS Error
 ---------------------------------------
    1    -492.2094314951      1.94E-03
    2    -492.2187006143      2.82E-04
    3    -492.2193074377      1.28E-04
    4    -492.2194041562      6.74E-05
    5    -492.2194368563      1.96E-05
    6    -492.2194416126      9.73E-06
    7    -492.2194431407      3.61E-06
    8    -492.2194432778      1.33E-06
    9    -492.2194432957      4.11E-07
   10    -492.2194432992      1.90E-07
   11    -492.2194433002      1.01E-07
   12    -492.2194433003      4.38E-08
   13    -492.2194433003      2.04E-08
   14    -492.2194433004      9.35E-09 Convergence criterion met
 ---------------------------------------
 SCF time:  CPU 96.02 s  wall 95.42 s
 SCF   energy in the final basis set = -492.2194433004
 Total energy in the final basis set = -492.2194433004
 
 --------------------------------------------------------------
 
                    Orbital Energies (a.u.)
 --------------------------------------------------------------
 
 Alpha MOs
 -- Occupied --
-20.248 -20.197 -20.196 -20.120 -11.025 -11.000 -10.961 -10.921
-10.912  -1.092  -1.063  -0.968  -0.925  -0.707  -0.637  -0.560
 -0.455  -0.369  -0.343  -0.328  -0.295  -0.285  -0.281  -0.267
 -0.242  -0.231  -0.205  -0.178  -0.174  -0.154  -0.101  -0.086
 -0.067  -0.015  -0.005
 -- Virtual --
  0.294   0.298   0.325   0.337   0.354   0.361   0.365   0.368
  0.372   0.392   0.399   0.411   0.415   0.427   0.438   0.441
  0.458   0.466   0.516   0.519   0.585   0.596   0.607   0.624
  0.636   0.643   0.653   0.661   0.669   0.675   0.682   0.691
  0.710   0.712   0.715   0.732   0.736   0.745   0.760   0.761
  0.770   0.791   0.811   0.818   0.825   0.859   0.862   0.886
  0.933   1.041   1.070   1.150   1.171   1.185   1.219   1.266
  1.279   1.289   1.312   1.347   1.358   1.370   1.412   1.425
  1.446   1.494   1.497   1.546   1.560   1.596   1.612   1.643
  1.678   1.705   1.734   1.794   1.824   1.855   1.876   1.898
  1.913   1.923   1.943   1.951   1.968   2.000   2.012   2.025
  2.041   2.080   2.083   2.108   2.137   2.178   2.248   2.255
  2.281   2.304   2.332   2.377   2.381   2.455   2.473   2.494
  2.505   2.516   2.564   2.579   2.607   2.613   2.646   2.656
  2.701   2.719   2.726   2.799   2.820   2.867   2.926   2.943
  2.962   2.998   3.023   3.078   3.092   3.167   3.217   3.240
  3.319   3.351   3.418   3.487   3.518   3.707   3.735   3.815
  3.866   3.930   3.963   4.902   4.948   5.033   5.084   5.119
  5.254   5.318   5.445   5.524
 --------------------------------------------------------------
 
          Ground-State Mulliken Net Atomic Charges

     Atom                 Charge (a.u.)
  ----------------------------------------
      1 C                     0.498974
      2 O                    -0.730460
      3 O                    -0.750869
      4 C                     0.358211
      5 C                    -0.675541
      6 O                    -0.515122
      7 C                     0.346058
      8 O                    -0.847609
      9 C                    -0.701017
     10 H                     0.152549
     11 H                     0.208842
     12 H                     0.161522
     13 H                     0.182757
     14 H                     0.176679
     15 H                     0.135026
  ----------------------------------------
  Sum of atomic charges =    -2.000000

 -----------------------------------------------------------------
                    Cartesian Multipole Moments
 -----------------------------------------------------------------
    Charge (ESU x 10^10)
                -9.6064
    Dipole Moment (Debye)
         X      -0.7842      Y       2.8635      Z      -0.8062
       Tot       3.0764
    Quadrupole Moments (Debye-Ang)
        XX    -107.8146     XY      -9.8720     YY     -81.2223
        XZ       7.2234     YZ       3.4669     ZZ     -63.2168
    Octopole Moments (Debye-Ang^2)
       XXX      14.5471    XXY      12.6209    XYY       4.0419
       YYY     -12.6843    XXZ       5.9613    XYZ      -2.9300
       YYZ      -6.7771    XZZ      14.3322    YZZ      -5.9106
       ZZZ       7.6561
    Hexadecapole Moments (Debye-Ang^3)
      XXXX   -1240.2742   XXXY     -42.9918   XXYY    -282.5158
      XYYY     -20.4227   YYYY    -489.0775   XXXZ      75.9820
      XXYZ       7.5757   XYYZ      14.4109   YYYZ      17.5612
      XXZZ    -226.8581   XYZZ       5.5040   YYZZ    -128.3384
      XZZZ      23.1399   YZZZ      12.7610   ZZZZ    -299.2300
 -----------------------------------------------------------------
 Calculating analytic gradient of the SCF energy
 Gradient of SCF Energy
            1           2           3           4           5           6
    1   0.0001743   0.0000129   0.0004489  -0.0011435  -0.0009030  -0.0005364
    2   0.0003447   0.0010959   0.0012161  -0.0026189   0.0001425  -0.0010353
    3   0.0024559  -0.0012250   0.0015170  -0.0063865  -0.0005905  -0.0000347
            7           8           9          10          11          12
    1   0.0025877  -0.0013425  -0.0016822   0.0004540   0.0003015   0.0003973
    2   0.0026887  -0.0029264   0.0005033  -0.0001575   0.0008381  -0.0002427
    3   0.0044809   0.0011998  -0.0002227  -0.0003546  -0.0003174  -0.0007150
           13          14          15
    1  -0.0004330   0.0000243   0.0016395
    2   0.0001576  -0.0011329   0.0011268
    3   0.0007870  -0.0005850  -0.0000091
 Max gradient component =       6.386E-03
 RMS gradient           =       1.645E-03
 Gradient time:  CPU 57.13 s  wall 57.13 s
 Geometry Optimization Parameters
   NAtoms,    NIC,     NZ,  NCons,   NDum,   NFix, NCnnct, MaxDiis
       15      96       0       0       0       0       0       0

 Cartesian Hessian Update
 Hessian Updated using BFGS Update


** GEOMETRY OPTIMIZATION IN DELOCALIZED INTERNAL COORDINATES **
   Searching for a Minimum

   Optimization Cycle:   6

                       Coordinates (Angstroms)
     ATOM                X               Y               Z
      1  C         1.5404763936    0.2886374718   -0.1665696478
      2  O         1.4066317616    1.5168597296   -0.0569557961
      3  O         2.5573379680   -0.3254758924   -0.5018022432
      4  C         0.2707900560   -0.6119347391    0.1761137187
      5  C        -1.3571345856    0.4020231619   -1.4315220800
      6  O         0.4831756703   -1.7243878909    0.5662778971
      7  C        -1.2077150207   -0.0697477903    0.0551795743
      8  O        -2.1299533105   -0.9867325047    0.3599626318
      9  C        -1.3613667221    1.1810990538    0.9709770636
     10  H        -2.4148860805    1.4553691912    0.9348865674
     11  H        -0.7398762348    2.0224098690    0.6880500284
     12  H        -1.1284402023    0.9038665978    1.9986868930
     13  H        -1.5317842764   -0.4814565517   -2.0408417371
     14  H        -0.5002225050    0.9470301509   -1.8208376127
     15  H        -2.2326332470    1.0466753513   -1.5167466488
   Point Group: c1    Number of degrees of freedom:    39


   Energy is   -492.219443300

 Hessian Updated using BFGS Update

 39 Hessian modes will be used to form the next step
  Hessian Eigenvalues:
     0.001335    0.002012    0.002765    0.005025    0.015784    0.035861
     0.050515    0.054647    0.059853    0.062595    0.074494    0.078707
     0.135992    0.150164    0.160000    0.160016    0.160427    0.161656
     0.162612    0.181370    0.196405    0.243490    0.250815    0.251310
     0.253413    0.256611    0.260755    0.270931    0.272132    0.290916
     0.305673    0.312099    0.334196    0.343061    0.363499    0.522465
     0.646353    0.786929    0.874170

 Minimum Search - Taking Simple RFO Step
 Searching for Lamda that Minimizes Along All modes
 Value Taken    Lamda =  -0.00434000
 Calculated Step too Large.  Step scaled by  0.375458
 Step Taken.  Stepsize is  0.300000

                             Maximum     Tolerance    Cnvgd?
         Gradient           0.005072      0.000300      NO
         Displacement       0.208536      0.001200      NO
         Energy change     -0.001310      0.000001      NO


 New Cartesian Coordinates Obtained by Inverse Iteration

 Displacement from previous Coordinates is:  0.385892
 ----------------------------------------------------------------
             Standard Nuclear Orientation (Angstroms)
    I     Atom           X                Y                Z
 ----------------------------------------------------------------
    1      C       1.5316960479     0.2788891269    -0.2027232717
    2      O       1.4291389476     1.5072554712    -0.0659807691
    3      O       2.5159945469    -0.3546190953    -0.5976585276
    4      C       0.2660441819    -0.5988337165     0.2138097904
    5      C      -1.3364655248     0.4075684733    -1.4290264724
    6      O       0.4872760167    -1.6964798558     0.6430614062
    7      C      -1.2153927012    -0.0693390621     0.0585122025
    8      O      -2.1386916154    -0.9852348025     0.3490064513
    9      C      -1.3723576554     1.1799973654     0.9755100742
   10      H      -2.4212227490     1.4678453638     0.9281035863
   11      H      -0.7246966820     2.0097952037     0.7116855272
   12      H      -1.1618334952     0.8850900155     2.0039250446
   13      H      -1.4505594823    -0.4747538623    -2.0584190797
   14      H      -0.5043435186     1.0106592710    -1.7793811840
   15      H      -2.2501866525     0.9963953118    -1.5355661697
 ----------------------------------------------------------------
 Molecular Point Group                 C1    NOp =  1
 Largest Abelian Subgroup              C1    NOp =  1
 Nuclear Repulsion Energy =   451.0263090975 hartrees
 There are       35 alpha and       35 beta electrons
 Requested basis set is 6-31+G(d)
 There are 57 shells and 183 basis functions
 A cutoff of  1.0D-11 yielded   1548 shell pairs
 There are     16550 function pairs
 Smallest overlap matrix eigenvalue = 2.60E-05
 Placing solute cavity origin at the center of mass
 Center of Onsager solute cavity (Angst): (   0.019924,  -0.031816,  -0.008437)
 Solvent multipole matrices computed through 15th order

 Scale SEOQF with 1.000000e-01/1.000000e-01/1.000000e-01

 Standard Electronic Orientation quadrupole field applied
 Guess MOs from SCF MO coefficient file
 Reading MOs from coefficient file
 Reading MOs from coefficient file
 A restricted Hartree-Fock SCF calculation will be
 performed using Pulay DIIS extrapolation
 Kirkwood-Onsager solvation model will be applied
 SCF converges when DIIS error is below 1.0E-08
 Kirkwood-Onsager SCRF: 
 Maximum multipole order     = 15
 Solvent dielectric constant = 78.3900
 Cavity radius               = 56.6917 bohr
 Born term (E_born)          = -0.03482849 a.u. = -21.8552 kcal/mol
Geometry optimization detected.  Setting ReadMinima to 0
Setting SaveMinima to 0
 ---------------------------------------
  Cycle       Energy         DIIS Error
 ---------------------------------------
    1    -492.2164354050      1.93E-03
    2    -492.2200550653      2.71E-04
    3    -492.2206805558      1.07E-04
    4    -492.2207740678      6.02E-05
    5    -492.2207984779      1.79E-05
    6    -492.2208026188      8.19E-06
    7    -492.2208036040      2.33E-06
    8    -492.2208036686      9.32E-07
    9    -492.2208036748      3.36E-07
   10    -492.2208036762      1.32E-07
   11    -492.2208036764      6.04E-08
   12    -492.2208036763      2.70E-08
   13    -492.2208036761      1.38E-08
   14    -492.2208036759      6.19E-09 Convergence criterion met
 ---------------------------------------
 SCF time:  CPU 94.86 s  wall 94.41 s
 SCF   energy in the final basis set = -492.2208036759
 Total energy in the final basis set = -492.2208036759
 
 --------------------------------------------------------------
 
                    Orbital Energies (a.u.)
 --------------------------------------------------------------
 
 Alpha MOs
 -- Occupied --
-20.248 -20.198 -20.197 -20.121 -11.026 -11.000 -10.962 -10.921
-10.913  -1.092  -1.062  -0.969  -0.928  -0.708  -0.638  -0.559
 -0.454  -0.369  -0.342  -0.328  -0.296  -0.286  -0.281  -0.267
 -0.242  -0.231  -0.205  -0.180  -0.175  -0.155  -0.101  -0.087
 -0.068  -0.016  -0.005
 -- Virtual --
  0.294   0.297   0.325   0.337   0.353   0.361   0.365   0.368
  0.372   0.392   0.398   0.411   0.415   0.426   0.439   0.442
  0.456   0.468   0.515   0.521   0.582   0.596   0.605   0.626
  0.636   0.642   0.649   0.663   0.668   0.677   0.681   0.691
  0.709   0.712   0.715   0.731   0.737   0.744   0.757   0.759
  0.771   0.793   0.810   0.816   0.828   0.858   0.862   0.887
  0.934   1.038   1.069   1.149   1.169   1.178   1.216   1.266
  1.280   1.295   1.318   1.342   1.359   1.366   1.411   1.424
  1.440   1.494   1.497   1.549   1.557   1.594   1.608   1.640
  1.685   1.705   1.730   1.797   1.811   1.860   1.878   1.893
  1.911   1.928   1.946   1.954   1.964   2.001   2.013   2.027
  2.038   2.082   2.084   2.114   2.134   2.180   2.249   2.257
  2.274   2.297   2.332   2.371   2.381   2.456   2.472   2.491
  2.507   2.518   2.564   2.575   2.603   2.610   2.646   2.655
  2.703   2.724   2.729   2.799   2.818   2.868   2.921   2.936
  2.956   2.996   3.025   3.074   3.090   3.171   3.214   3.246
  3.318   3.355   3.415   3.492   3.518   3.699   3.732   3.813
  3.864   3.924   3.962   4.910   4.948   5.037   5.092   5.115
  5.248   5.305   5.440   5.518
 --------------------------------------------------------------
 
          Ground-State Mulliken Net Atomic Charges

     Atom                 Charge (a.u.)
  ----------------------------------------
      1 C                     0.496604
      2 O                    -0.729404
      3 O                    -0.749803
      4 C                     0.358284
      5 C                    -0.670644
      6 O                    -0.519702
      7 C                     0.336789
      8 O                    -0.845094
      9 C                    -0.699263
     10 H                     0.151693
     11 H                     0.208832
     12 H                     0.163370
     13 H                     0.179845
     14 H                     0.180513
     15 H                     0.137980
  ----------------------------------------
  Sum of atomic charges =    -2.000000

 -----------------------------------------------------------------
                    Cartesian Multipole Moments
 -----------------------------------------------------------------
    Charge (ESU x 10^10)
                -9.6064
    Dipole Moment (Debye)
         X      -0.7868      Y       2.9230      Z      -0.6729
       Tot       3.1010
    Quadrupole Moments (Debye-Ang)
        XX    -107.3655     XY      -9.7468     YY     -81.0038
        XZ       7.8162     YZ       3.5202     ZZ     -63.8510
    Octopole Moments (Debye-Ang^2)
       XXX      16.6878    XXY      12.6303    XYY       3.9127
       YYY     -13.1570    XXZ       7.7689    XYZ      -2.9272
       YYZ      -7.2359    XZZ      12.9287    YZZ      -5.2522
       ZZZ       7.5555
    Hexadecapole Moments (Debye-Ang^3)
      XXXX   -1225.3800   XXXY     -42.2905   XXYY    -281.7126
      XYYY     -19.2060   YYYY    -482.6284   XXXZ      86.0628
      XXYZ       7.0255   XYYZ      16.2312   YYYZ      19.7739
      XXZZ    -229.2890   XYZZ       6.3890   YYZZ    -129.9315
      XZZZ      29.8651   YZZZ      14.3927   ZZZZ    -307.8831
 -----------------------------------------------------------------
 Calculating analytic gradient of the SCF energy
 Gradient of SCF Energy
            1           2           3           4           5           6
[...]
                                         0.1923 -0.0197 -0.0214  0.2530 -0.4835
                                        -0.4247  0.5904 -0.1214 -0.0609
 130. (0.00010) RY*(11) C  7             s(  1.37%)p33.30( 45.65%)d38.64( 52.98%)
 131. (0.00004) RY*(12) C  7             s( 14.40%)p 4.77( 68.74%)d 1.17( 16.85%)
 132. (0.00002) RY*(13) C  7             s( 91.42%)p 0.03(  2.89%)d 0.06(  5.68%)
 133. (0.00002) RY*(14) C  7             s( 34.97%)p 1.14( 40.01%)d 0.72( 25.02%)
 134. (0.00390) RY*( 1) O  8             s(  0.19%)p99.99( 99.67%)d 0.71(  0.14%)
                                         0.0000 -0.0021  0.0418 -0.0019 -0.0123
                                         0.0106 -0.7326  0.1039 -0.0070  0.6589
                                        -0.0838 -0.0046  0.0729 -0.0506  0.0010
                                        -0.0080  0.0096  0.0338 -0.0072
 135. (0.00360) RY*( 2) O  8             s(  0.32%)p99.99( 99.28%)d 1.21(  0.39%)
                                         0.0000 -0.0009  0.0521 -0.0222  0.0054
                                         0.0027 -0.1479  0.0213  0.0034 -0.0566
                                        -0.0082  0.0112 -0.9783  0.0999 -0.0036
                                         0.0300  0.0491 -0.0044 -0.0242
 136. (0.00044) RY*( 3) O  8             s( 89.69%)p 0.10(  8.73%)d 0.02(  1.58%)
                                         0.0000  0.0051  0.8877  0.3273  0.0422
                                         0.0169  0.1013  0.0287  0.0098  0.0900
                                         0.2375  0.0009  0.0273  0.1026 -0.0895
                                        -0.0440  0.0224 -0.0292  0.0674
 137. (0.00032) RY*( 4) O  8             s(  9.49%)p 8.00( 75.87%)d 1.54( 14.64%)
                                         0.0000  0.0020  0.1052  0.0411  0.2866
                                        -0.0056 -0.5372 -0.1333 -0.0094 -0.6168
                                        -0.1000  0.0022  0.1019 -0.2267 -0.3172
                                         0.0735  0.0976 -0.0013  0.1755
 138. (0.00023) RY*( 5) O  8             s(  1.55%)p60.49( 93.81%)d 2.99(  4.64%)
                                         0.0000  0.0005  0.0011  0.1229 -0.0200
                                        -0.0026 -0.0396  0.6153 -0.0039 -0.1613
                                        -0.4741  0.0022  0.0828  0.5479 -0.1455
                                        -0.0414 -0.0735 -0.1302 -0.0339
 139. (0.00014) RY*( 6) O  8             s(  4.85%)p19.11( 92.62%)d 0.52(  2.53%)
                                         0.0000  0.0004  0.1856  0.0130 -0.1177
                                         0.0030  0.1932  0.3381  0.0041  0.0468
                                        -0.4642  0.0015 -0.0854 -0.7413  0.0719
                                         0.1160 -0.0252 -0.0770  0.0133
 140. (0.00007) RY*( 7) O  8             s( 46.72%)p 0.80( 37.29%)d 0.34( 15.99%)
 141. (0.00004) RY*( 8) O  8             s( 27.22%)p 0.49( 13.32%)d 2.18( 59.46%)
 142. (0.00000) RY*( 9) O  8             s( 89.19%)p 0.07(  6.43%)d 0.05(  4.38%)
 143. (0.00001) RY*(10) O  8             s( 27.77%)p 2.27( 63.02%)d 0.33(  9.21%)
 144. (0.00000) RY*(11) O  8             s(  0.57%)p 6.67(  3.80%)d99.99( 95.63%)
 145. (0.00001) RY*(12) O  8             s(  1.35%)p 1.41(  1.90%)d71.45( 96.74%)
 146. (0.00000) RY*(13) O  8             s(  0.96%)p 3.80(  3.66%)d99.07( 95.38%)
 147. (0.00001) RY*(14) O  8             s(  0.14%)p 7.84(  1.12%)d99.99( 98.74%)
 148. (0.00391) RY*( 1) C  9             s( 19.18%)p 4.18( 80.17%)d 0.03(  0.64%)
                                         0.0000  0.0106  0.4356 -0.0380 -0.0223
                                        -0.0022  0.5746 -0.0977 -0.0151  0.1147
                                         0.2332 -0.0115 -0.6256  0.0532  0.0626
                                         0.0066 -0.0485  0.0092 -0.0052
 149. (0.00143) RY*( 2) C  9             s( 17.27%)p 4.24( 73.28%)d 0.55(  9.46%)
                                         0.0000  0.0023  0.3348  0.2453 -0.0194
                                        -0.0077 -0.4775 -0.1511  0.0036 -0.6106
                                        -0.0799  0.0003 -0.3202  0.0126  0.2074
                                         0.1242  0.0377 -0.1851 -0.0215
 150. (0.00135) RY*( 3) C  9             s(  8.82%)p 8.37( 73.76%)d 1.98( 17.42%)
                                         0.0000  0.0019 -0.1906  0.2276 -0.0008
                                        -0.0029 -0.4233  0.1011  0.0144  0.5261
                                        -0.0613 -0.0151 -0.4908 -0.1625  0.0505
                                        -0.0401  0.0261  0.0838  0.4029
 151. (0.00038) RY*( 4) C  9             s( 65.49%)p 0.44( 29.04%)d 0.08(  5.48%)
                                         0.0000 -0.0084  0.6347 -0.4921  0.0988
                                         0.0083 -0.3944  0.0674 -0.0038  0.3296
                                        -0.0739  0.0089  0.1263  0.0038 -0.0657
                                         0.0517 -0.0029  0.1525 -0.1566
 152. (0.00024) RY*( 5) C  9             s( 32.86%)p 1.22( 40.12%)d 0.82( 27.02%)
                                         0.0000  0.0042  0.3381  0.4543  0.0888
                                         0.0240  0.1507  0.4227  0.0057 -0.1185
                                        -0.1862 -0.0082  0.1194 -0.3691 -0.4602
                                         0.0331 -0.1132  0.1804  0.1091
 153. (0.00016) RY*( 6) C  9             s( 20.37%)p 1.58( 32.17%)d 2.33( 47.46%)
                                         0.0000 -0.0071  0.2383  0.3832  0.0100
                                        -0.0216  0.0699  0.2306 -0.0167  0.2519
                                         0.1270 -0.0155  0.3574  0.2352  0.6022
                                         0.2057 -0.1754 -0.1555  0.1212
 154. (0.00009) RY*( 7) C  9             s( 17.94%)p 2.42( 43.41%)d 2.15( 38.65%)
 155. (0.00003) RY*( 8) C  9             s(  1.90%)p32.81( 62.32%)d18.84( 35.79%)
 156. (0.00004) RY*( 9) C  9             s(  6.36%)p 5.98( 38.08%)d 8.73( 55.56%)
 157. (0.00002) RY*(10) C  9             s(  4.67%)p17.02( 79.52%)d 3.38( 15.81%)
 158. (0.00001) RY*(11) C  9             s(  1.61%)p 3.96(  6.37%)d57.22( 92.02%)
 159. (0.00000) RY*(12) C  9             s(  9.71%)p 1.02(  9.90%)d 8.28( 80.39%)
 160. (0.00001) RY*(13) C  9             s(  1.23%)p23.33( 28.63%)d57.16( 70.14%)
 161. (0.00000) RY*(14) C  9             s( 92.61%)p 0.04(  3.85%)d 0.04(  3.53%)
 162. (0.00138) RY*( 1) H 10             s(100.00%)
                                        -0.0021  1.0000
 163. (0.00105) RY*( 1) H 11             s(100.00%)
                                        -0.0021  1.0000
 164. (0.00092) RY*( 1) H 12             s(100.00%)
                                        -0.0012  1.0000
 165. (0.00081) RY*( 1) H 13             s(100.00%)
                                        -0.0010  1.0000
 166. (0.00093) RY*( 1) H 14             s(100.00%)
                                        -0.0018  1.0000
 167. (0.00118) RY*( 1) H 15             s(100.00%)
                                        -0.0015  1.0000
 168. (0.04535) BD*( 1) C  1- O  2       
               ( 66.20%)   0.8136* C  1 s( 34.09%)p 1.92( 65.61%)d 0.01(  0.30%)
                                         0.0001 -0.5826  0.0382  0.0021 -0.0059
                                        -0.2630  0.0313  0.0034 -0.7242  0.0537
                                         0.0028 -0.2420  0.0049 -0.0023 -0.0205
                                        -0.0162 -0.0271  0.0355  0.0169
               ( 33.80%)  -0.5814* O  2 s( 40.34%)p 1.47( 59.31%)d 0.01(  0.35%)
                                         0.0000 -0.6350  0.0095  0.0064 -0.0030
                                         0.2097 -0.0009 -0.0017  0.6988 -0.0190
                                        -0.0007  0.2456 -0.0102  0.0013 -0.0252
                                        -0.0115 -0.0302  0.0379  0.0201
 169. (0.04891) BD*( 1) C  1- O  3       
               ( 66.39%)   0.8148* C  1 s( 33.75%)p 1.95( 65.95%)d 0.01(  0.30%)
                                        -0.0001  0.5796 -0.0387 -0.0031  0.0054
                                         0.4287 -0.0305 -0.0005 -0.4510  0.0113
                                        -0.0025 -0.5182  0.0524  0.0043 -0.0306
                                        -0.0249  0.0349 -0.0059  0.0121
               ( 33.61%)  -0.5798* O  3 s( 39.87%)p 1.50( 59.77%)d 0.01(  0.36%)
                                         0.0000  0.6313 -0.0097 -0.0070  0.0020
                                        -0.2200  0.0047  0.0008  0.3400 -0.0141
                                         0.0008  0.6582 -0.0148 -0.0010 -0.0198
                                        -0.0279  0.0402 -0.0063  0.0269
 170. (0.31506) BD*( 2) C  1- O  3       
               ( 80.35%)   0.8964* C  1 s(  0.60%)p99.99( 98.75%)d 1.09(  0.65%)
                                         0.0001 -0.0770  0.0044  0.0064  0.0008
                                         0.5672  0.0432  0.0130 -0.3834 -0.0267
                                        -0.0129  0.7175  0.0313  0.0053 -0.0374
                                        -0.0185 -0.0087 -0.0021 -0.0687
               ( 19.65%)  -0.4433* O  3 s(  0.75%)p99.99( 98.98%)d 0.36(  0.27%)
                                         0.0000 -0.0864  0.0027  0.0009 -0.0007
                                         0.6642  0.0003  0.0019 -0.4878  0.0012
                                        -0.0005  0.5573  0.0034  0.0011  0.0289
                                         0.0143 -0.0059 -0.0019  0.0404
 171. (0.10777) BD*( 1) C  1- C  4       
               ( 52.08%)   0.7217* C  1 s( 31.70%)p 2.15( 68.09%)d 0.01(  0.21%)
                                        -0.0002 -0.5602 -0.0562 -0.0013  0.0058
                                         0.6436  0.0142 -0.0146  0.3419 -0.0038
                                        -0.0062 -0.3864  0.0007  0.0060 -0.0239
                                         0.0264  0.0183 -0.0204  0.0082
               ( 47.92%)  -0.6922* C  4 s( 32.33%)p 2.09( 67.49%)d 0.01(  0.18%)
                                         0.0001 -0.5685  0.0092  0.0057  0.0025
                                        -0.6295  0.0093  0.0024 -0.3398  0.0085
                                         0.0033  0.4036 -0.0110 -0.0040 -0.0250
                                         0.0269  0.0164 -0.0137  0.0050
 172. (0.00890) BD*( 1) C  4- O  6       
               ( 67.40%)   0.8210* C  4 s( 30.64%)p 2.25( 69.08%)d 0.01(  0.28%)
                                         0.0001 -0.5462 -0.0896  0.0064 -0.0035
                                        -0.1677 -0.0203  0.0036  0.6509  0.0503
                                        -0.0009 -0.4819 -0.0620  0.0061  0.0163
                                        -0.0135  0.0405  0.0251 -0.0070
               ( 32.60%)  -0.5710* O  6 s( 44.49%)p 1.24( 55.12%)d 0.01(  0.40%)
                                        -0.0001 -0.6667  0.0196  0.0039  0.0026
                                         0.1605  0.0008  0.0028 -0.3480  0.0060
                                        -0.0025  0.6358 -0.0082  0.0026  0.0140
                                        -0.0179  0.0494  0.0168 -0.0270
 173. (0.04398) BD*( 2) C  4- O  6       
               ( 73.24%)   0.8558* C  4 s(  0.67%)p99.99( 98.78%)d 0.81(  0.54%)
                                        -0.0001  0.0819  0.0060 -0.0006  0.0006
                                         0.0622  0.0049  0.0010  0.6436 -0.0300
                                         0.0134  0.7538 -0.0176  0.0103  0.0098
                                         0.0170  0.0031  0.0324  0.0632
               ( 26.76%)  -0.5173* O  6 s(  1.21%)p81.23( 98.42%)d 0.30(  0.37%)
                                         0.0000  0.1100 -0.0016 -0.0004 -0.0016
                                         0.0074 -0.0011 -0.0013  0.8179 -0.0045
                                        -0.0034  0.5613 -0.0015 -0.0045 -0.0094
                                        -0.0061 -0.0148 -0.0337 -0.0467
 174. (0.09782) BD*( 1) C  4- C  7       
               ( 49.00%)   0.7000* C  4 s( 36.70%)p 1.72( 63.17%)d 0.00(  0.13%)
                                         0.0000 -0.6050  0.0297 -0.0088 -0.0003
                                         0.7539 -0.0063 -0.0059 -0.1888  0.0162
                                         0.0057  0.1650 -0.0037 -0.0037  0.0191
                                        -0.0146  0.0024 -0.0240  0.0136
               ( 51.00%)  -0.7141* C  7 s( 22.35%)p 3.47( 77.45%)d 0.01(  0.20%)
                                        -0.0001 -0.4722  0.0217 -0.0052 -0.0027
                                        -0.8172  0.0211  0.0105  0.2802  0.0107
                                         0.0033 -0.1660 -0.0025 -0.0023  0.0155
                                        -0.0124  0.0000 -0.0353  0.0182
 175. (0.04922) BD*( 1) C  5- C  7       
               ( 47.83%)   0.6916* C  5 s( 27.81%)p 2.59( 72.07%)d 0.00(  0.12%)
                                        -0.0003 -0.5273  0.0053 -0.0059  0.0033
                                        -0.0717  0.0151 -0.0011  0.2683  0.0087
                                        -0.0004 -0.8020  0.0080  0.0037  0.0035
                                        -0.0041  0.0179  0.0019 -0.0298
               ( 52.17%)  -0.7223* C  7 s( 25.50%)p 2.92( 74.33%)d 0.01(  0.17%)
                                         0.0001 -0.5049  0.0091  0.0026  0.0000
                                         0.0309  0.0125  0.0102 -0.2776  0.0170
                                         0.0040  0.8153  0.0010 -0.0046  0.0020
                                         0.0049  0.0259  0.0059 -0.0307
 176. (0.00528) BD*( 1) C  5- H 13       
               ( 39.37%)   0.6274* C  5 s( 24.28%)p 3.11( 75.55%)d 0.01(  0.17%)
                                         0.0000 -0.4928 -0.0024  0.0046 -0.0011
                                        -0.1810  0.0017  0.0021  0.6439 -0.0042
                                        -0.0016  0.5551  0.0044  0.0058  0.0112
                                         0.0091 -0.0335  0.0173 -0.0054
               ( 60.63%)  -0.7787* H 13 s(100.00%)
                                        -1.0000 -0.0010
 177. (0.00934) BD*( 1) C  5- H 14       
               ( 40.19%)   0.6340* C  5 s( 24.36%)p 3.10( 75.46%)d 0.01(  0.18%)
                                         0.0001 -0.4935 -0.0021 -0.0012 -0.0009
                                        -0.5436 -0.0033  0.0059 -0.6603 -0.0043
                                         0.0001  0.1515  0.0119  0.0044 -0.0347
                                         0.0080  0.0103  0.0073  0.0193
               ( 59.81%)  -0.7734* H 14 s(100.00%)
                                        -1.0000 -0.0018
 178. (0.00713) BD*( 1) C  5- H 15       
               ( 40.76%)   0.6384* C  5 s( 23.52%)p 3.24( 76.31%)d 0.01(  0.17%)
                                        -0.0001  0.4850  0.0042 -0.0008  0.0014
                                        -0.8150 -0.0002 -0.0001  0.2740 -0.0046
                                         0.0038 -0.1539 -0.0077 -0.0063 -0.0217
                                         0.0114 -0.0044  0.0276 -0.0183
               ( 59.24%)  -0.7697* H 15 s(100.00%)
                                         1.0000  0.0015
 179. (0.01260) BD*( 1) C  7- O  8       
               ( 61.81%)   0.7862* C  7 s( 27.86%)p 2.58( 71.93%)d 0.01(  0.22%)
                                        -0.0001  0.5255  0.0490  0.0011 -0.0001
                                        -0.5469 -0.0297 -0.0077 -0.6331 -0.0354
                                        -0.0101  0.1308  0.0045  0.0005  0.0391
                                        -0.0086 -0.0086 -0.0048 -0.0218
               ( 38.19%)  -0.6180* O  8 s( 34.33%)p 1.90( 65.39%)d 0.01(  0.28%)
                                         0.0001  0.5858 -0.0094  0.0081 -0.0003
                                         0.5501 -0.0207 -0.0084  0.5815 -0.0246
                                        -0.0113 -0.1091  0.0055  0.0024  0.0448
                                        -0.0087 -0.0093 -0.0040 -0.0248
 180. (0.05194) BD*( 1) C  7- C  9       
               ( 52.23%)   0.7227* C  7 s( 24.24%)p 3.12( 75.59%)d 0.01(  0.16%)
                                         0.0000  0.4922 -0.0111 -0.0036 -0.0019
                                        -0.1661 -0.0160 -0.0065  0.6631 -0.0109
                                        -0.0094  0.5367  0.0051 -0.0052 -0.0054
                                         0.0003  0.0326 -0.0234  0.0004
               ( 47.77%)  -0.6912* C  9 s( 27.63%)p 2.61( 72.25%)d 0.00(  0.12%)
                                         0.0004  0.5256 -0.0050 -0.0067 -0.0016
                                         0.1835 -0.0171  0.0001 -0.6395 -0.0013
                                         0.0003 -0.5287  0.0111  0.0020 -0.0113
                                        -0.0068  0.0282 -0.0150  0.0033
 181. (0.00860) BD*( 1) C  9- H 10       
               ( 40.88%)   0.6394* C  9 s( 23.55%)p 3.24( 76.28%)d 0.01(  0.17%)
                                        -0.0001  0.4852  0.0040  0.0009  0.0003
                                        -0.8011 -0.0032  0.0000  0.3056  0.0015
                                         0.0051 -0.1658  0.0076  0.0036 -0.0236
                                         0.0127 -0.0042  0.0251 -0.0184
               ( 59.12%)  -0.7689* H 10 s(100.00%)
                                         1.0000  0.0021
 182. (0.00936) BD*( 1) C  9- H 11       
               ( 39.77%)   0.6306* C  9 s( 24.61%)p 3.06( 75.21%)d 0.01(  0.18%)
                                         0.0001 -0.4961 -0.0036 -0.0006 -0.0008
                                        -0.5671 -0.0053  0.0053 -0.6489 -0.0075
                                        -0.0011  0.0959 -0.0067 -0.0023 -0.0359
                                         0.0047  0.0062  0.0051  0.0207
               ( 60.23%)  -0.7761* H 11 s(100.00%)
                                        -1.0000 -0.0021
 183. (0.00558) BD*( 1) C  9- H 12       
               ( 39.64%)   0.6296* C  9 s( 24.18%)p 3.13( 75.65%)d 0.01(  0.17%)
                                         0.0000 -0.4917 -0.0020 -0.0043  0.0000
                                        -0.0223  0.0033  0.0015  0.2726 -0.0033
                                        -0.0039 -0.8256 -0.0014 -0.0027  0.0010
                                        -0.0017  0.0207  0.0032 -0.0352
               ( 60.36%)  -0.7769* H 12 s(100.00%)
                                        -1.0000 -0.0012
 SVNBO: NDIM =          183
 NBO state            0

 *******************************************************************************
Archival summary:
1\1\bt2600-16\OPT\HF\6-31+G*\456(2-,1)\emavera\WedApr2614:01:532017WedApr2614:01:532017\0\\#,OPT,HF,6-31+G*,\\-2,1\C\O,1,1.20485\C,1,1.54895,2,117.668\O,3,1.23768,1,116.193,2,-83.7837,0\O,3,1.24148,1,115.36,2,95.5491,0\C,1,1.57507,2,121.585,3,176.671,0\O,6,1.33231,1,114.051,2,33.4434,0\C,6,1.55589,1,108.455,2,157.895,0\H,8,1.08648,6,109.565,1,-66.0498,0\H,8,1.08931,6,114.391,1,55.928,0\H,8,1.08986,6,107.388,1,176.894,0\C,6,1.56365,1,103.842,2,-88.0494,0\H,12,1.08721,6,108.522,1,65.9174,0\H,12,1.08891,6,113.887,1,-55.7015,0\H,12,1.09104,6,107.787,1,-177.373,0\\HF=-492.229172\\@

 Total job time:  2759.53s(wall), 2761.72s(cpu) 
 Wed Apr 26 14:01:53 2017

        *************************************************************
        *                                                           *
        *  Thank you very much for using Q-Chem.  Have a nice day.  *
        *                                                           *
        *************************************************************


0 sent ACK to 0 
now end server 0 ... 
cleanup process ... done
