Jobname.Temp
FOPT      R                             6-31+G(d)           
Number of atoms                            I               15
Charge                                     I               -2
Multiplicity                               I                1
Number of electrons                        I               70
Number of alpha electrons                  I               35
Number of beta electrons                   I               35
Atomic numbers                             I   N=          15
           6           8           8           6           6           8
           6           8           6           1           1           1
           1           1           1
Current cartesian coordinates              R   N=          45
  3.02236137E+00  5.55513241E-01 -1.20202350E-01  2.78125214E+00  2.87994216E+00
  2.79501647E-01  5.12716227E+00 -6.98081143E-01 -4.71619397E-01  6.96548884E-01
 -1.06603818E+00  2.18372927E-01 -2.84093912E+00  8.18327518E-01 -2.74940408E+00
  9.24188853E-01 -3.44988863E+00  5.97920220E-01 -2.11578084E+00 -1.34778431E-01
 -1.12315091E-02 -3.91271400E+00 -1.85514747E+00  6.46365317E-01 -2.49585545E+00
  2.09644483E+00  1.86411577E+00 -4.55429695E+00  2.62907128E+00  1.69985290E+00
 -1.50163456E+00  3.96872832E+00  1.10632840E+00 -2.08544039E+00  2.06494283E+00
  3.89677951E+00 -3.29064130E+00 -1.15323797E+00 -3.74487131E+00 -1.20411920E+00
  1.64452296E+00 -3.89394675E+00 -4.32099068E+00  2.21455932E+00 -2.69138962E+00
Nuclear charges                            R   N=          15
  6.00000000E+00  8.00000000E+00  8.00000000E+00  6.00000000E+00  6.00000000E+00
  8.00000000E+00  6.00000000E+00  8.00000000E+00  6.00000000E+00  1.00000000E+00
  1.00000000E+00  1.00000000E+00  1.00000000E+00  1.00000000E+00  1.00000000E+00
Number of basis functions                  I              183
Number of contracted shells                I               57
Number of primitive shells                 I              132
Highest angular momentum                   I                2
Largest degree of contraction              I                6
Shell types                                I   N=          57
           0          -1          -1          -1           2           0
          -1          -1          -1           2           0          -1
          -1          -1           2           0          -1          -1
          -1           2           0          -1          -1          -1
           2           0          -1          -1          -1           2
           0          -1          -1          -1           2           0
          -1          -1          -1           2           0          -1
          -1          -1           2           0           0           0
           0           0           0           0           0           0
           0           0           0
Number of primitives per shell             I   N=          57
           6           3           1           1           1           6
           3           1           1           1           6           3
           1           1           1           6           3           1
           1           1           6           3           1           1
           1           6           3           1           1           1
           6           3           1           1           1           6
           3           1           1           1           6           3
           1           1           1           3           1           3
           1           3           1           3           1           3
           1           3           1
Shell to atom map                          I   N=          57
           1           1           1           1           1           2
           2           2           2           2           3           3
           3           3           3           4           4           4
           4           4           5           5           5           5
           5           6           6           6           6           6
           7           7           7           7           7           8
           8           8           8           8           9           9
           9           9           9          10          10          11
          11          12          12          13          13          14
          14          15          15
Primitive exponents                        R   N=         132
  3.04752490E+03  4.57369510E+02  1.03948690E+02  2.92101550E+01  9.28666300E+00
  3.16392700E+00  7.86827240E+00  1.88128850E+00  5.44249300E-01  1.68714400E-01
  4.38000000E-02  8.00000000E-01  5.48467170E+03  8.25234950E+02  1.88046960E+02
  5.29645000E+01  1.68975700E+01  5.79963530E+00  1.55396160E+01  3.59993360E+00
  1.01376180E+00  2.70005800E-01  8.45000000E-02  8.00000000E-01  5.48467170E+03
  8.25234950E+02  1.88046960E+02  5.29645000E+01  1.68975700E+01  5.79963530E+00
  1.55396160E+01  3.59993360E+00  1.01376180E+00  2.70005800E-01  8.45000000E-02
  8.00000000E-01  3.04752490E+03  4.57369510E+02  1.03948690E+02  2.92101550E+01
  9.28666300E+00  3.16392700E+00  7.86827240E+00  1.88128850E+00  5.44249300E-01
  1.68714400E-01  4.38000000E-02  8.00000000E-01  3.04752490E+03  4.57369510E+02
  1.03948690E+02  2.92101550E+01  9.28666300E+00  3.16392700E+00  7.86827240E+00
  1.88128850E+00  5.44249300E-01  1.68714400E-01  4.38000000E-02  8.00000000E-01
  5.48467170E+03  8.25234950E+02  1.88046960E+02  5.29645000E+01  1.68975700E+01
  5.79963530E+00  1.55396160E+01  3.59993360E+00  1.01376180E+00  2.70005800E-01
  8.45000000E-02  8.00000000E-01  3.04752490E+03  4.57369510E+02  1.03948690E+02
  2.92101550E+01  9.28666300E+00  3.16392700E+00  7.86827240E+00  1.88128850E+00
  5.44249300E-01  1.68714400E-01  4.38000000E-02  8.00000000E-01  5.48467170E+03
  8.25234950E+02  1.88046960E+02  5.29645000E+01  1.68975700E+01  5.79963530E+00
  1.55396160E+01  3.59993360E+00  1.01376180E+00  2.70005800E-01  8.45000000E-02
  8.00000000E-01  3.04752490E+03  4.57369510E+02  1.03948690E+02  2.92101550E+01
  9.28666300E+00  3.16392700E+00  7.86827240E+00  1.88128850E+00  5.44249300E-01
  1.68714400E-01  4.38000000E-02  8.00000000E-01  1.87311370E+01  2.82539370E+00
  6.40121700E-01  1.61277800E-01  1.87311370E+01  2.82539370E+00  6.40121700E-01
  1.61277800E-01  1.87311370E+01  2.82539370E+00  6.40121700E-01  1.61277800E-01
  1.87311370E+01  2.82539370E+00  6.40121700E-01  1.61277800E-01  1.87311370E+01
  2.82539370E+00  6.40121700E-01  1.61277800E-01  1.87311370E+01  2.82539370E+00
  6.40121700E-01  1.61277800E-01
Contraction coefficients                   R   N=         132
  3.17779390E-03  2.43133190E-02  1.19238892E-01  4.02155213E-01  8.10498179E-01
  6.27542848E-01 -1.19332409E-01 -1.60854212E-01  1.14345648E+00  1.00000000E+00
  1.00000000E+00  1.00000000E+00  3.17155790E-03  2.41622794E-02  1.18550378E-01
  4.03072948E-01  8.14398079E-01  6.20976348E-01 -1.10777504E-01 -1.48026305E-01
  1.13076704E+00  1.00000000E+00  1.00000000E+00  1.00000000E+00  3.17155790E-03
  2.41622794E-02  1.18550378E-01  4.03072948E-01  8.14398079E-01  6.20976348E-01
 -1.10777504E-01 -1.48026305E-01  1.13076704E+00  1.00000000E+00  1.00000000E+00
  1.00000000E+00  3.17779390E-03  2.43133190E-02  1.19238892E-01  4.02155213E-01
  8.10498179E-01  6.27542848E-01 -1.19332409E-01 -1.60854212E-01  1.14345648E+00
  1.00000000E+00  1.00000000E+00  1.00000000E+00  3.17779390E-03  2.43133190E-02
  1.19238892E-01  4.02155213E-01  8.10498179E-01  6.27542848E-01 -1.19332409E-01
 -1.60854212E-01  1.14345648E+00  1.00000000E+00  1.00000000E+00  1.00000000E+00
  3.17155790E-03  2.41622794E-02  1.18550378E-01  4.03072948E-01  8.14398079E-01
  6.20976348E-01 -1.10777504E-01 -1.48026305E-01  1.13076704E+00  1.00000000E+00
  1.00000000E+00  1.00000000E+00  3.17779390E-03  2.43133190E-02  1.19238892E-01
  4.02155213E-01  8.10498179E-01  6.27542848E-01 -1.19332409E-01 -1.60854212E-01
  1.14345648E+00  1.00000000E+00  1.00000000E+00  1.00000000E+00  3.17155790E-03
  2.41622794E-02  1.18550378E-01  4.03072948E-01  8.14398079E-01  6.20976348E-01
 -1.10777504E-01 -1.48026305E-01  1.13076704E+00  1.00000000E+00  1.00000000E+00
  1.00000000E+00  3.17779390E-03  2.43133190E-02  1.19238892E-01  4.02155213E-01
  8.10498179E-01  6.27542848E-01 -1.19332409E-01 -1.60854212E-01  1.14345648E+00
  1.00000000E+00  1.00000000E+00  1.00000000E+00  5.80143482E-02  4.06558998E-01
  1.40946902E+00  1.73205081E+00  5.80143482E-02  4.06558998E-01  1.40946902E+00
  1.73205081E+00  5.80143482E-02  4.06558998E-01  1.40946902E+00  1.73205081E+00
  5.80143482E-02  4.06558998E-01  1.40946902E+00  1.73205081E+00  5.80143482E-02
  4.06558998E-01  1.40946902E+00  1.73205081E+00  5.80143482E-02  4.06558998E-01
  1.40946902E+00  1.73205081E+00
P(S=P) Contraction coefficients            R   N=         132
  0.00000000E+00  0.00000000E+00  0.00000000E+00  0.00000000E+00  0.00000000E+00
  0.00000000E+00  1.19509939E-01  5.48062410E-01  1.28917971E+00  1.73205081E+00
  1.73205081E+00  0.00000000E+00  0.00000000E+00  0.00000000E+00  0.00000000E+00
  0.00000000E+00  0.00000000E+00  0.00000000E+00  1.22757888E-01  5.88469108E-01
  1.25947563E+00  1.73205081E+00  1.73205081E+00  0.00000000E+00  0.00000000E+00
  0.00000000E+00  0.00000000E+00  0.00000000E+00  0.00000000E+00  0.00000000E+00
  1.22757888E-01  5.88469108E-01  1.25947563E+00  1.73205081E+00  1.73205081E+00
  0.00000000E+00  0.00000000E+00  0.00000000E+00  0.00000000E+00  0.00000000E+00
  0.00000000E+00  0.00000000E+00  1.19509939E-01  5.48062410E-01  1.28917971E+00
  1.73205081E+00  1.73205081E+00  0.00000000E+00  0.00000000E+00  0.00000000E+00
  0.00000000E+00  0.00000000E+00  0.00000000E+00  0.00000000E+00  1.19509939E-01
  5.48062410E-01  1.28917971E+00  1.73205081E+00  1.73205081E+00  0.00000000E+00
  0.00000000E+00  0.00000000E+00  0.00000000E+00  0.00000000E+00  0.00000000E+00
  0.00000000E+00  1.22757888E-01  5.88469108E-01  1.25947563E+00  1.73205081E+00
  1.73205081E+00  0.00000000E+00  0.00000000E+00  0.00000000E+00  0.00000000E+00
  0.00000000E+00  0.00000000E+00  0.00000000E+00  1.19509939E-01  5.48062410E-01
  1.28917971E+00  1.73205081E+00  1.73205081E+00  0.00000000E+00  0.00000000E+00
  0.00000000E+00  0.00000000E+00  0.00000000E+00  0.00000000E+00  0.00000000E+00
  1.22757888E-01  5.88469108E-01  1.25947563E+00  1.73205081E+00  1.73205081E+00
  0.00000000E+00  0.00000000E+00  0.00000000E+00  0.00000000E+00  0.00000000E+00
  0.00000000E+00  0.00000000E+00  1.19509939E-01  5.48062410E-01  1.28917971E+00
  1.73205081E+00  1.73205081E+00  0.00000000E+00  0.00000000E+00  0.00000000E+00
  0.00000000E+00  0.00000000E+00  0.00000000E+00  0.00000000E+00  0.00000000E+00
  0.00000000E+00  0.00000000E+00  0.00000000E+00  0.00000000E+00  0.00000000E+00
  0.00000000E+00  0.00000000E+00  0.00000000E+00  0.00000000E+00  0.00000000E+00
  0.00000000E+00  0.00000000E+00  0.00000000E+00  0.00000000E+00  0.00000000E+00
  0.00000000E+00  0.00000000E+00
Coordinates of each shell                  R   N=         171
  3.02236137E+00  5.55513241E-01 -1.20202350E-01  3.02236137E+00  5.55513241E-01
 -1.20202350E-01  3.02236137E+00  5.55513241E-01 -1.20202350E-01  3.02236137E+00
  5.55513241E-01 -1.20202350E-01  3.02236137E+00  5.55513241E-01 -1.20202350E-01
  2.78125214E+00  2.87994216E+00  2.79501647E-01  2.78125214E+00  2.87994216E+00
  2.79501647E-01  2.78125214E+00  2.87994216E+00  2.79501647E-01  2.78125214E+00
  2.87994216E+00  2.79501647E-01  2.78125214E+00  2.87994216E+00  2.79501647E-01
  5.12716227E+00 -6.98081143E-01 -4.71619397E-01  5.12716227E+00 -6.98081143E-01
 -4.71619397E-01  5.12716227E+00 -6.98081143E-01 -4.71619397E-01  5.12716227E+00
 -6.98081143E-01 -4.71619397E-01  5.12716227E+00 -6.98081143E-01 -4.71619397E-01
  6.96548884E-01 -1.06603818E+00  2.18372927E-01  6.96548884E-01 -1.06603818E+00
  2.18372927E-01  6.96548884E-01 -1.06603818E+00  2.18372927E-01  6.96548884E-01
 -1.06603818E+00  2.18372927E-01  6.96548884E-01 -1.06603818E+00  2.18372927E-01
 -2.84093912E+00  8.18327518E-01 -2.74940408E+00 -2.84093912E+00  8.18327518E-01
 -2.74940408E+00 -2.84093912E+00  8.18327518E-01 -2.74940408E+00 -2.84093912E+00
  8.18327518E-01 -2.74940408E+00 -2.84093912E+00  8.18327518E-01 -2.74940408E+00
  9.24188853E-01 -3.44988863E+00  5.97920220E-01  9.24188853E-01 -3.44988863E+00
  5.97920220E-01  9.24188853E-01 -3.44988863E+00  5.97920220E-01  9.24188853E-01
 -3.44988863E+00  5.97920220E-01  9.24188853E-01 -3.44988863E+00  5.97920220E-01
 -2.11578084E+00 -1.34778431E-01 -1.12315091E-02 -2.11578084E+00 -1.34778431E-01
 -1.12315091E-02 -2.11578084E+00 -1.34778431E-01 -1.12315091E-02 -2.11578084E+00
 -1.34778431E-01 -1.12315091E-02 -2.11578084E+00 -1.34778431E-01 -1.12315091E-02
 -3.91271400E+00 -1.85514747E+00  6.46365317E-01 -3.91271400E+00 -1.85514747E+00
  6.46365317E-01 -3.91271400E+00 -1.85514747E+00  6.46365317E-01 -3.91271400E+00
 -1.85514747E+00  6.46365317E-01 -3.91271400E+00 -1.85514747E+00  6.46365317E-01
 -2.49585545E+00  2.09644483E+00  1.86411577E+00 -2.49585545E+00  2.09644483E+00
  1.86411577E+00 -2.49585545E+00  2.09644483E+00  1.86411577E+00 -2.49585545E+00
  2.09644483E+00  1.86411577E+00 -2.49585545E+00  2.09644483E+00  1.86411577E+00
 -4.55429695E+00  2.62907128E+00  1.69985290E+00 -4.55429695E+00  2.62907128E+00
  1.69985290E+00 -1.50163456E+00  3.96872832E+00  1.10632840E+00 -1.50163456E+00
  3.96872832E+00  1.10632840E+00 -2.08544039E+00  2.06494283E+00  3.89677951E+00
 -2.08544039E+00  2.06494283E+00  3.89677951E+00 -3.29064130E+00 -1.15323797E+00
 -3.74487131E+00 -3.29064130E+00 -1.15323797E+00 -3.74487131E+00 -1.20411920E+00
  1.64452296E+00 -3.89394675E+00 -1.20411920E+00  1.64452296E+00 -3.89394675E+00
 -4.32099068E+00  2.21455932E+00 -2.69138962E+00 -4.32099068E+00  2.21455932E+00
 -2.69138962E+00
SCF Energy                                 R     -4.949684582867039E+02
Dipole_Data                                R   N=           3
 -1.70050901E+00  2.96503245E+00 -9.93768783E-01
Quadrupole_Data                            R   N=           6
 -1.11276746E+02 -7.71319805E+00 -8.39385687E+01  3.81011019E+00  1.54047992E+00
 -6.50667567E+01
Octapole_Data                              R   N=          10
 -1.32316850E+01  1.25499355E+01  8.74389904E-01 -5.67004311E+00  2.32041031E+00
 -3.70241569E+00 -7.33275195E+00  1.56976408E+01 -6.68530079E+00  1.15772618E+01
Hexadecapole_Data                          R   N=          15
 -1.37735713E+03 -2.32111943E+01 -3.07341107E+02 -6.81182430E+00 -5.44064970E+02
  2.74347454E+01 -1.13564522E+00  4.13303339E+00 -4.22977868E+00 -2.47400405E+02
  8.62109194E+00 -1.38212394E+02 -1.32975486E+01  3.04356542E+00 -3.30335126E+02
Cartesian Forces                           R   N=          45
  5.89225131E-02 -2.07553845E-02  1.24939814E-02  2.55462011E-03  9.14747742E-03
 -7.46308850E-03 -3.39210594E-02  2.72248518E-02 -3.15298908E-03 -2.70802439E-02
 -9.42010414E-02 -8.11712750E-03  4.94808509E-02 -4.61765045E-02 -3.10668480E-02
  3.34249959E-03  6.82494001E-02 -4.99729096E-03 -3.05392184E-02 -3.24982752E-04
  2.91128442E-02  7.80524275E-03 -9.22361183E-03 -3.54898659E-03 -6.06820203E-03
  8.33466376E-02 -2.96653636E-02  1.12277560E-02 -1.04404117E-02  4.48759021E-03
 -1.13148490E-02 -3.35126550E-02  1.68268139E-02  6.84015391E-03 -1.73207025E-02
 -2.69559050E-03 -2.24907197E-03  4.66547781E-02  1.61897778E-02 -1.36705176E-02
 -2.55919532E-03  1.20479120E-02 -1.53304741E-02 -1.08655418E-04 -4.51634787E-04
Current cartesian coordinates              R   N=          45
  3.00647278E+00  5.42752090E-01 -1.11368581E-01  2.73968670E+00  2.89565623E+00
  7.75427128E-02  5.06894060E+00 -6.49752443E-01 -6.47642622E-01  6.50540030E-01
 -1.10892383E+00  2.66056088E-01 -2.74494876E+00  7.97845037E-01 -2.73313548E+00
  9.19278176E-01 -3.43096557E+00  6.97682108E-01 -2.16363666E+00 -1.49925713E-01
  3.69255888E-02 -3.95651691E+00 -1.88921513E+00  6.53849794E-01 -2.54548095E+00
  2.14006345E+00  1.86591714E+00 -4.58402921E+00  2.66993167E+00  1.71546140E+00
 -1.51966052E+00  3.94044248E+00  1.18097942E+00 -2.11775103E+00  1.98919318E+00
  3.88817115E+00 -3.21008723E+00 -1.05379875E+00 -3.76191977E+00 -1.07542829E+00
  1.61926428E+00 -3.77695489E+00 -4.23827771E+00  2.20231365E+00 -2.72499238E+00
SCF Energy                                 R     -4.949903057824090E+02
Dipole_Data                                R   N=           3
 -1.41195100E+00  2.84744664E+00 -6.55041231E-01
Quadrupole_Data                            R   N=           6
 -1.10863586E+02 -8.30318815E+00 -8.37528021E+01  5.16192272E+00  2.17287743E+00
 -6.51152549E+01
Octapole_Data                              R   N=          10
 -6.33881619E+00  1.25204340E+01  1.83018447E+00 -5.30351743E+00  4.98155578E+00
 -2.89275830E+00 -6.63314101E+00  1.59627503E+01 -6.59201630E+00  1.15014141E+01
Hexadecapole_Data                          R   N=          15
 -1.35990585E+03 -2.90406540E+01 -3.06731615E+02 -1.15760467E+01 -5.42021803E+02
  4.66952208E+01  2.24321861E+00  9.19324233E+00  2.28314200E+00 -2.46947534E+02
  8.17483300E+00 -1.38933048E+02  2.46202973E-01  6.16923312E+00 -3.29626317E+02
Cartesian Forces                           R   N=          45
  3.93767316E-02 -8.70044990E-03 -1.20977127E-02  3.49302234E-05  6.86634256E-03
  1.47335547E-03 -2.33160711E-02  1.41819202E-02  6.04219981E-03 -1.57448738E-02
 -6.24787384E-02  2.13566956E-03  3.62698686E-02 -2.86286808E-02 -2.08069446E-02
  2.08057594E-03  4.29292886E-02 -3.62407732E-03 -2.64911344E-02 -6.34348707E-04
  2.04502472E-02  8.67595128E-03 -3.00036989E-03 -2.76792766E-03 -6.65007900E-04
  5.85056950E-02 -2.08264339E-02  6.11087252E-03 -8.74422478E-03  3.30822511E-03
 -6.74642614E-03 -2.42298777E-02  1.01459762E-02  4.08628399E-03 -1.33025251E-02
 -1.31501497E-03 -3.34346715E-03  2.86271350E-02  1.03664199E-02 -9.52942506E-03
 -3.12484282E-04  8.87679862E-03 -1.07988086E-02 -1.07868190E-03 -1.36078087E-03
Current cartesian coordinates              R   N=          45
  2.97180123E+00  5.61750035E-01 -2.22115149E-01  2.71542268E+00  2.91060173E+00
  8.98354386E-02  5.03534194E+00 -5.99537546E-01 -6.23560072E-01  6.05424366E-01
 -1.14432577E+00  2.57128900E-01 -2.70299845E+00  7.60665839E-01 -2.73197984E+00
  9.41806158E-01 -3.39372568E+00  7.20804943E-01 -2.21590479E+00 -1.59433754E-01
  6.47782106E-02 -3.98982784E+00 -1.90121888E+00  6.99141038E-01 -2.55174722E+00
  2.19330288E+00  1.84065070E+00 -4.57152416E+00  2.71670992E+00  1.73288261E+00
 -1.50126028E+00  3.89491917E+00  1.19564988E+00 -2.07473585E+00  1.90059781E+00
  3.83728362E+00 -3.20285835E+00 -9.69038580E-01 -3.77285659E+00 -1.02151245E+00
  1.56712184E+00 -3.69856644E+00 -4.20832598E+00  2.17649162E+00 -2.76250557E+00
SCF Energy                                 R     -4.950021440972338E+02
Dipole_Data                                R   N=           3
 -1.15398029E+00  2.60427711E+00 -8.85136859E-01
Quadrupole_Data                            R   N=           6
 -1.10821127E+02 -8.74998684E+00 -8.34004404E+01  5.19966710E+00  2.25453607E+00
 -6.51163750E+01
Octapole_Data                              R   N=          10
 -1.14127586E+00  1.15201097E+01  2.76320686E+00 -6.57773958E+00  3.66135907E+00
 -3.27352264E+00 -6.69026916E+00  1.70269866E+01 -7.04543079E+00  1.06951172E+01
Hexadecapole_Data                          R   N=          15
 -1.35258301E+03 -3.52528254E+01 -3.06334947E+02 -1.62568354E+01 -5.37859143E+02
  4.96359174E+01  3.08221767E+00  1.02318672E+01  4.05579066E+00 -2.46414778E+02
  7.59008749E+00 -1.38935086E+02  3.77717726E+00  6.59866941E+00 -3.28931695E+02
Cartesian Forces                           R   N=          45
  2.40108515E-02 -1.69372202E-03  1.22597702E-02 -3.37445828E-03  5.70777518E-03
 -5.10123512E-03 -8.17973355E-03  3.13516071E-03 -6.10753635E-03 -1.21623631E-02
 -1.96625146E-02 -7.54759652E-03  2.27557117E-02 -6.42902977E-03 -5.99268648E-03
  2.17886131E-03  8.96340126E-03  2.20385627E-03 -1.94926249E-02 -8.98432405E-04
  1.50070172E-02  6.51541693E-03 -2.77025774E-04 -2.73178440E-03 -4.93244941E-04
  2.73904184E-02 -1.04449200E-02  3.95674043E-05 -5.97093808E-03  2.74674144E-03
  1.53744956E-03 -8.43288878E-03  3.11934575E-03  1.31829382E-03 -7.58011149E-03
 -6.65576684E-04 -5.86500895E-03  4.66270605E-03  1.44055447E-04 -3.19531379E-03
  2.96765572E-03  4.30281683E-03 -5.59340472E-03 -1.88245453E-03 -1.19226758E-03
Current cartesian coordinates              R   N=          45
  2.94635367E+00  5.68632343E-01 -2.35204472E-01  2.61774151E+00  2.93681290E+00
 -1.63314360E-01  4.94292551E+00 -5.92144534E-01 -8.14547962E-01  5.63270007E-01
 -1.16458225E+00  3.34357941E-01 -2.60290069E+00  7.63532350E-01 -2.71581725E+00
  9.37168391E-01 -3.36277680E+00  8.89993864E-01 -2.26047743E+00 -1.57982128E-01
  1.07825833E-01 -4.03395037E+00 -1.89476498E+00  6.99542244E-01 -2.58203355E+00
  2.21497506E+00  1.85781637E+00 -4.59645572E+00  2.72684822E+00  1.74147231E+00
 -1.45694451E+00  3.83993361E+00  1.26614217E+00 -2.12902243E+00  1.77767977E+00
  3.83754591E+00 -3.09056020E+00 -9.11406780E-01 -3.81297409E+00 -8.91903770E-01
  1.60763347E+00 -3.55542750E+00 -4.13410941E+00  2.16249038E+00 -2.81083932E+00
SCF Energy                                 R     -4.950072315753128E+02
Dipole_Data                                R   N=           3
 -7.50807424E-01  2.46233713E+00 -4.58013927E-01
Quadrupole_Data                            R   N=           6
 -1.09800213E+02 -8.77195319E+00 -8.33501476E+01  6.49487536E+00  3.10598399E+00
 -6.56948906E+01
Octapole_Data                              R   N=          10
  7.70091439E+00  1.14778031E+01  4.03906501E+00 -8.16185940E+00  6.54566610E+00
 -1.90771226E+00 -6.06747316E+00  1.72080574E+01 -7.23003712E+00  1.13318927E+01
Hexadecapole_Data                          R   N=          15
 -1.32217011E+03 -3.65312328E+01 -3.03212696E+02 -1.71372315E+01 -5.36377963E+02
  6.86321113E+01  7.24413029E+00  1.57205495E+01  1.34696928E+01 -2.46449838E+02
  7.87116016E+00 -1.41425515E+02  1.70086703E+01  1.23017255E+01 -3.35977452E+02
Cartesian Forces                           R   N=          45
  1.54444833E-03  4.39907221E-03 -8.18107710E-03  1.80480958E-03  4.68981867E-04
  2.77108166E-03  2.41200010E-03 -5.63691123E-04  1.19896094E-03 -5.13288540E-03
  3.31954176E-03 -1.80699158E-03  1.22098011E-02  1.24684835E-03 -4.11352850E-06
  1.85430165E-03 -8.10357918E-03  5.04669861E-03 -1.20096126E-02 -2.45712254E-03
  4.36912788E-03  3.27629513E-03 -3.12948086E-04 -1.43418004E-03 -1.23247040E-03
  6.87696623E-03 -2.59063008E-03 -6.32408542E-04 -2.37292583E-03  2.14876342E-03
  4.76133502E-03  1.26177446E-03  4.89019038E-05 -3.93067187E-04 -2.45050548E-03
 -2.54284499E-04 -4.18031146E-03 -2.51914250E-03 -2.54083027E-03 -1.23835232E-03
  2.86412518E-03  1.86782801E-03 -3.04388297E-03 -1.65739537E-03 -6.39255337E-04
Current cartesian coordinates              R   N=          45
  2.93705124E+00  5.44529417E-01 -3.52574919E-01  2.64118775E+00  2.91933364E+00
 -3.43251194E-01  4.92260188E+00 -6.52998791E-01 -8.92687549E-01  5.44363313E-01
 -1.15498987E+00  3.65491221E-01 -2.55759769E+00  7.88114437E-01 -2.70527389E+00
  9.32608416E-01 -3.30560115E+00  1.09177835E+00 -2.28788694E+00 -1.56176572E-01
  1.21081970E-01 -4.05032151E+00 -1.91378742E+00  6.66848771E-01 -2.61451418E+00
  2.21601713E+00  1.87903548E+00 -4.62619206E+00  2.73341364E+00  1.75479985E+00
 -1.43334780E+00  3.82492940E+00  1.33833644E+00 -2.19757209E+00  1.70894802E+00
  3.85053914E+00 -2.94745281E+00 -8.85603064E-01 -3.85892491E+00 -8.68712522E-01
  1.74852165E+00 -3.45369160E+00 -4.16511398E+00  2.10023017E+00 -2.83493548E+00
SCF Energy                                 R     -4.950091920316757E+02
Dipole_Data                                R   N=           3
 -7.38525298E-01  2.54536574E+00 -2.82079330E-01
Quadrupole_Data                            R   N=           6
 -1.09758284E+02 -8.59421402E+00 -8.31259509E+01  6.85795375E+00  3.82124176E+00
 -6.61935431E+01
Octapole_Data                              R   N=          10
  9.25663610E+00  1.24269921E+01  4.54881897E+00 -8.37152803E+00  8.58494083E+00
 -9.83528181E-01 -5.55745857E+00  1.66258078E+01 -6.66511752E+00  1.21989792E+01
Hexadecapole_Data                          R   N=          15
 -1.32031333E+03 -3.44653960E+01 -3.03590928E+02 -1.53526599E+01 -5.30062175E+02
  7.83971643E+01  9.43316140E+00  1.89987440E+01  2.15402846E+01 -2.48790122E+02
  8.73832047E+00 -1.43573355E+02  2.44771106E+01  1.78661996E+01 -3.43552211E+02
Cartesian Forces                           R   N=          45
  1.71293072E-03  2.66497235E-03 -3.69157192E-03 -9.80753877E-05 -3.74141100E-04
  2.11798899E-03  9.50042754E-04 -8.51872335E-04 -3.26805917E-04 -2.51908616E-03
  2.42371376E-03  4.26966024E-04  6.34543378E-03  7.40453613E-04 -5.34662890E-04
  1.29818305E-03 -3.41084435E-03  3.44318839E-03 -7.53442214E-03 -3.47538875E-03
 -1.37135557E-03  2.80519982E-03  2.28450346E-03 -6.64439227E-04  8.18944058E-04
  2.08552904E-03 -7.21824902E-04 -2.71502792E-05 -6.14430428E-04  1.07693589E-03
  2.51929777E-03  5.01518141E-04 -2.02306272E-04 -5.76048285E-04 -1.03972404E-03
  2.88368050E-04 -1.82952610E-03 -7.91089479E-04 -1.27708632E-03 -1.51863256E-03
  1.41201920E-03  1.75086667E-03 -2.34709103E-03 -1.55521913E-03 -3.14261011E-04
Current cartesian coordinates              R   N=          45
  2.92533371E+00  5.47407994E-01 -3.65543354E-01  2.65852770E+00  2.92302668E+00
 -2.42736438E-01  4.88477881E+00 -6.50003982E-01 -9.93238925E-01  5.24461559E-01
 -1.15840671E+00  3.76528029E-01 -2.55965983E+00  7.79331021E-01 -2.71528709E+00
  9.26544642E-01 -3.28238599E+00  1.18085992E+00 -2.31398091E+00 -1.63186103E-01
  1.15268818E-01 -4.07425569E+00 -1.91028571E+00  6.70272648E-01 -2.59133841E+00
  2.22669784E+00  1.86341658E+00 -4.58575795E+00  2.80070877E+00  1.73309939E+00
 -1.32916109E+00  3.78552505E+00  1.34603126E+00 -2.21249124E+00  1.67333251E+00
  3.83132148E+00 -2.84434575E+00 -8.97823519E-01 -3.90258330E+00 -9.24802495E-01
  1.86231808E+00 -3.40004836E+00 -4.25475201E+00  1.97862470E+00 -2.87078898E+00
SCF Energy                                 R     -4.950104675548345E+02
Dipole_Data                                R   N=           3
 -6.75140558E-01  2.52821487E+00 -3.56125451E-01
Quadrupole_Data                            R   N=           6
 -1.09647180E+02 -8.64242002E+00 -8.29920688E+01  6.99537015E+00  3.60401134E+00
 -6.65539927E+01
Octapole_Data                              R   N=          10
  1.19750980E+01  1.20657282E+01  4.89898655E+00 -8.89333799E+00  9.13690611E+00
 -1.47231729E+00 -6.44866213E+00  1.63125865E+01 -6.22725854E+00  1.19216885E+01
Hexadecapole_Data                          R   N=          15
 -1.31477091E+03 -3.76569965E+01 -3.03499247E+02 -1.68989661E+01 -5.27964689E+02
  8.08092196E+01  8.19904925E+00  1.81090737E+01  2.08493970E+01 -2.50182608E+02
  8.57862921E+00 -1.44313076E+02  2.45249155E+01  1.73269290E+01 -3.47965908E+02
Cartesian Forces                           R   N=          45
  1.23404239E-04  1.08657080E-03 -1.52710635E-03  4.54646919E-04 -1.12601330E-03
  1.03975381E-03 -3.69712772E-05 -7.93190813E-04 -1.11775138E-03  2.83553671E-05
  2.35542828E-03  1.25475648E-03  8.77798461E-04  1.27114677E-04  5.38110125E-04
  6.76630432E-04 -9.15533233E-04  2.05354200E-03 -3.61947693E-03 -2.46251337E-03
 -2.87424821E-03  1.81303546E-03  2.44549136E-03 -9.60358476E-04  1.46687997E-03
 -3.16447489E-05  4.03900552E-04 -4.14045546E-04  3.67026057E-04  4.12600209E-04
  2.01940849E-04 -4.14100376E-04  2.27693788E-04 -6.17253309E-04  2.79202390E-05
  3.24207180E-04  2.68487860E-04 -9.67394582E-05 -6.58964515E-04 -8.89455195E-05
  7.02656081E-04  5.78703818E-04 -1.13448697E-03 -1.27247223E-03  3.05160963E-04
Current cartesian coordinates              R   N=          45
  2.92391416E+00  5.20487478E-01 -4.47193710E-01  2.72515360E+00  2.90128966E+00
 -3.06634430E-01  4.81554482E+00 -7.29683372E-01 -1.17386103E+00  5.21849974E-01
 -1.12692776E+00  4.44450378E-01 -2.52190754E+00  7.96366179E-01 -2.70751947E+00
  9.35901912E-01 -3.21239310E+00  1.34639807E+00 -2.32578369E+00 -1.60142735E-01
  1.21114149E-01 -4.07678267E+00 -1.91714379E+00  6.40439984E-01 -2.62523853E+00
  2.22322866E+00  1.87965756E+00 -4.60985322E+00  2.82143738E+00  1.71514992E+00
 -1.31870012E+00  3.76326890E+00  1.41306642E+00 -2.30493153E+00  1.63260685E+00
  3.84813672E+00 -2.68782734E+00 -8.73028730E-01 -3.93247005E+00 -9.35502969E-01
  1.98696951E+00 -3.31426379E+00 -4.28673583E+00  1.88854551E+00 -2.89989904E+00
SCF Energy                                 R     -4.950115095535028E+02
Dipole_Data                                R   N=           3
 -6.99851957E-01  2.59603615E+00 -1.63137124E-01
Quadrupole_Data                            R   N=           6
 -1.09183598E+02 -8.46016299E+00 -8.27907915E+01  7.66890145E+00  3.73533686E+00
 -6.72013419E+01
Octapole_Data                              R   N=          10
  1.38979978E+01  1.22877236E+01  4.91297339E+00 -9.38435694E+00  1.15307471E+01
 -1.18929999E+00 -6.32463295E+00  1.47715294E+01 -5.50070016E+00  1.25939088E+01
Hexadecapole_Data                          R   N=          15
 -1.30257184E+03 -3.53581615E+01 -3.03551847E+02 -1.47839297E+01 -5.20231955E+02
  9.29405564E+01  7.72168030E+00  2.10099124E+01  2.36039721E+01 -2.53536877E+02
  9.89210986E+00 -1.46448879E+02  3.29638793E+01  1.95142774E+01 -3.57834167E+02
Cartesian Forces                           R   N=          45
 -8.13388384E-04 -3.46856530E-04  1.30833467E-03 -1.30916386E-04 -5.70137062E-04
  1.21215226E-03 -1.08869375E-03 -2.18744452E-04 -1.48959315E-03  2.04891992E-03
 -5.85111307E-04 -3.25614702E-03 -2.15477256E-03 -3.70725868E-05  1.05285400E-03
 -4.36430199E-06  1.62782494E-03  2.97543299E-03 -7.75271148E-04 -9.19893682E-04
 -2.78481815E-03  5.22991699E-04  1.39655540E-03 -4.97028766E-04  2.07076487E-03
 -1.46680474E-03  1.14669196E-03 -2.11550205E-04  1.12075811E-03 -1.90973438E-04