
Running Job 1 of 1 prod_h.qcin
qchem prod_h.qcin_41307.0 /tmp/prod_h.qcin/ 1
/programs/x86_64/lib/qchem-4.3.2/bin/mpi/mpirun_qchem -machinefile /var/spool/torque/aux//113231.vali -np 1 /programs/x86_64/lib/qchem-4.3.2/exe/qcprog.exe prod_h.qcin_41307.0 /tmp/prod_h.qcin/

Process 0 of 1 is on bt2600-16.csail.mit.edu - thread support 0
initial socket setup ...start
initial socket setup ...done 
now start server 0 ... 

cmd = ssh thor /programs/x86_64/lib/qchem-4.3.2/bin/get_hostid 790788887 > /tmp/prod_h.qcin/lic.dat
                  Welcome to Q-Chem
     A Quantum Leap Into The Future Of Chemistry


 Q-Chem 4.3, Q-Chem, Inc., Pleasanton, CA (2015)

 Y. Shao,  Z. Gan,  E. Epifanovsky,  A. T. B. Gilbert,  M. Wormit,  
 J. Kussmann,  A. W. Lange,  A. Behn,  J. Deng,  X. Feng,  D. Ghosh,  
 M. Goldey,  P. R. Horn,  L. D. Jacobson,  I. Kaliman,  R. Z. Khaliullin,  
 T. Kus,  A. Landau,  J. Liu,  E. I. Proynov,  Y. M. Rhee,  R. M. Richard,  
 M. A. Rohrdanz,  R. P. Steele,  E. J. Sundstrom,  H. L. Woodcock III,  
 P. M. Zimmerman,  D. Zuev,  B. Albrecht,  E. Alguire,  B. Austin,  
 S. A. Baeppler,  G. J. O. Beran,  Y. A. Bernard,  E. Berquist,  
 K. Brandhorst,  K. B. Bravaya,  S. T. Brown,  D. Casanova,  C.-M. Chang,  
 Y. Chen,  S. H. Chien,  K. D. Closser,  D. L. Crittenden,  M. Diedenhofen,  
 R. A. DiStasio Jr.,  H. Do,  A. D. Dutoi,  R. G. Edgar,  P.-T. Fang,  
 S. Fatehi,  Q. Feng,  L. Fusti-Molnar,  A. Ghysels,  
 A. Golubeva-Zadorozhnaya,  J. Gomes,  A. Gunina,  M. W. D. Hanson-Heine,  
 P. H. P. Harbach,  A. W. Hauser,  E. G. Hohenstein,  Z. C. Holden,  K. Hui,  
 T.-C. Jagau,  H. Ji,  B. Kaduk,  K. Khistyaev,  Jaehoon Kim,  Jihan Kim,  
 R. A. King,  P. Klunzinger,  D. Kosenkov,  T. Kowalczyk,  C. M. Krauter,  
 K. U. Lao,  A. Laurent,  K. V. Lawler,  S. Lehtola,  S. V. Levchenko,  
 C. Y. Lin,  Y.-S. Lin,  F. Liu,  E. Livshits,  R. C. Lochan,  A. Luenser,  
 P. Manohar,  S. F. Manzer,  S.-P. Mao,  N. Mardirossian,  A. V. Marenich,  
 L. A. Martinez-Martinez,  S. A. Maurer,  N. J. Mayhall,  K. Nanda,  
 C. M. Oana,  R. Olivares-Amaya,  D. P. O'Neill,  J. A. Parkhill,  
 T. M. Perrine,  R. Peverati,  P. A. Pieniazek,  F. Plasser,  A. Prociuk,  
 D. R. Rehn,  E. Rosta,  N. J. Russ,  N. Sergueev,  S. M. Sharada,  
 S. Sharma,  D. W. Small,  A. Sodt,  T. Stauch,  T. Stein,  D. Stuck,  
 Y.-C. Su,  A. J. W. Thom,  T. Tsuchimochi,  L. Vogt,  O. Vydrov,  T. Wang,  
 M. A. Watson,  J. Wenzel,  A. White,  C. F. Williams,  V. Vanovschi,  
 S. Yeganeh,  S. R. Yost,  Z.-Q. You,  I. Y. Zhang,  X. Zhang,  Y. Zhao,  
 B. R. Brooks,  G. K. L. Chan,  D. M. Chipman,  C. J. Cramer,  
 W. A. Goddard III,  M. S. Gordon,  W. J. Hehre,  A. Klamt,  
 H. F. Schaefer III,  M. W. Schmidt,  C. D. Sherrill,  D. G. Truhlar,  
 A. Warshel,  X. Xu,  A. Aspuru-Guzik,  R. Baer,  A. T. Bell,  N. A. Besley,  
 J.-D. Chai,  A. Dreuw,  B. D. Dunietz,  T. R. Furlani,  S. R. Gwaltney,  
 C.-P. Hsu,  Y. Jung,  J. Kong,  D. S. Lambrecht,  W. Liang,  C. Ochsenfeld,  
 V. A. Rassolov,  L. V. Slipchenko,  J. E. Subotnik,  T. Van Voorhis,  
 J. M. Herbert,  A. I. Krylov,  P. M. W. Gill,  M. Head-Gordon

 Contributors to earlier versions of Q-Chem not listed above: 
 R. D. Adamson,  J. Baker,  E. F. C. Byrd,  A. K. Chakraborty,  C.-L. Cheng,  
 H. Dachsel,  R. J. Doerksen,  G. Hawkins,  A. Heyden,  S. Hirata,  
 G. Kedziora,  F. J. Keil,  C. Kelley,  P. P. Korambath,  W. Kurlancheek,  
 A. M. Lee,  M. S. Lee,  D. Liotard,  I. Lotan,  P. E. Maslen,  N. Nair,  
 D. Neuhauser,  R. Olson,  B. Peters,  J. Ritchie,  N. E. Schultz,  
 N. Shenvi,  A. C. Simmonett,  K. S. Thanthiriwatte,  Q. Wu,  W. Zhang

 Please cite Q-Chem as follows:
 Y. Shao et al., Mol. Phys. 113, 184-215 (2015)
 DOI: 10.1080/00268976.2014.952696

 Q-Chem 4.3.0 for Intel X86 Linux

 Parts of Q-Chem use Armadillo 5.200.1 (Boston Tea Smuggler).
 http://arma.sourceforge.net/

 Q-Chem begins on Sun Apr 23 17:53:51 2017  

Host: 
0

     Scratch files written to /tmp/prod_h.qcin//
 Oct1215 13750_ 19228  19214 4150   
 Parallel job on  1  processors
Processing $rem in /programs/x86_64/lib/qchem-4.3.2/config/preferences.
 MEM_TOTAL  2000 

Checking the input file for inconsistencies... 	...done.

--------------------------------------------------------------
User input:
--------------------------------------------------------------
$rem
JOBTYPE Opt
EXCHANGE B3LYP
BASIS 6-31+G(d)
GUI=2
pdb_print 2
NBO TRUE
$end

$comment
product
$end

$molecule
-2 1
C        3.52200       -1.27800        2.47300
O        4.59900       -1.30300        1.83000
O        3.34100       -1.58600        3.73300
C        2.33500       -0.63100        1.79800
C        1.98400       -1.87300       -0.50400
O        1.34900       -0.20700        2.50100
C        2.12700       -0.48800        0.24600
O        1.05700        0.26200       -0.13700
C        3.36100        0.25500       -0.34100
H        3.14100        0.37800       -1.44100
H        4.31400       -0.45900       -0.37600
H        3.75000        1.22500       -0.00600
H        0.82900       -2.09700       -0.30800
H        2.53400       -2.74800       -0.01400
H        2.31800       -1.80800       -1.52600
$end

--------------------------------------------------------------
 ----------------------------------------------------------------
             Standard Nuclear Orientation (Angstroms)
    I     Atom           X                Y                Z
 ----------------------------------------------------------------
    1      C       1.5993647577     0.2939649477    -0.0636083444
    2      O       1.4717752476     1.5239997604     0.1479059017
    3      O       2.7131774295    -0.3694086323    -0.2495702373
    4      C       0.3685977956    -0.5641231098     0.1155579763
    5      C      -1.5033602411     0.4330402734    -1.4549219810
    6      O       0.4890596794    -1.8256024416     0.3164057545
    7      C      -1.1196230033    -0.0713216741    -0.0059434586
    8      O      -2.0705190829    -0.9817017643     0.3420417958
    9      C      -1.3207498247     1.1093908299     0.9864475856
   10      H      -2.4100301548     1.3912446059     0.8995234154
   11      H      -0.7946307867     2.1001605835     0.5854437784
   12      H      -1.1035675305     1.0927206852     2.0620869105
   13      H      -1.7413323845    -0.6102672514    -1.9817005566
   14      H      -0.6371924413     0.8702440711    -2.0605878805
   15      H      -2.2865697953     1.1718943243    -1.4242220512
 ----------------------------------------------------------------
 Molecular Point Group                 C1    NOp =  1
 Largest Abelian Subgroup              C1    NOp =  1
 Nuclear Repulsion Energy =   444.1807725836 hartrees
 There are       35 alpha and       35 beta electrons
 Requested basis set is 6-31+G(d)
 There are 57 shells and 183 basis functions

 Total QAlloc Memory Limit   2000 MB
 Mega-Array Size        61 MB
 MEM_STATIC part        62 MB
 A cutoff of  1.0D-11 yielded   1539 shell pairs
 There are     16463 function pairs
 
 -------------------------------------------------------
 OpenMP Integral Computing Module                       
 Release: version 1.0, May 2013, Q-Chem Inc. Pittsburgh 
 -------------------------------------------------------
 Integral Job Info:
 Integral job number is                      11
 Integral operator is                         1
 short-range coefficients                     0
 long-range coefficients              100000000
 Omega coefficients                           0
 if combine SR and LR in K                    0
 Integral screening is                        0
 Integral computing path is                   2
 max size of driver memory is            800000
 size of driver memory is                593474
 size of scratch memory is              2260544
 max col of scratch BK array               1296
 max len of scratch array in speh3          155
 max len of scratch index in speh4           18
 max int batch size is                      520
 min int batch size is                       52
 fixed nKL is                                52
 max L of basis functions is                  2
 order of int derivative is                   0
 number of shells is                         57
 number of basis is                         183
 number of cartesian basis is               183
 number of contracted shell pairs          1539
 number of primitive shell pairs           5314
 maxK2 (contraction) of shell pair           36
 max number of K2 of shell pair               1
 max number of CS2 of shell pair            200
 max number of PS2 of shell pair           1200
 mem total for path MDJ                   42942
 -------------------------------------------------------
 Smallest overlap matrix eigenvalue = 2.99E-05

 Scale SEOQF with 1.000000e-01/1.000000e-01/1.000000e-01

 Standard Electronic Orientation quadrupole field applied
 Nucleus-field energy     =     0.0000000077 hartrees
 Guess from superposition of atomic densities
 Warning:  Energy on first SCF cycle will be non-variational
 A restricted hybrid HF-DFT SCF calculation will be
 performed using Pulay DIIS extrapolation
 Exchange:     0.2000 Hartree-Fock + 0.0800 Slater + 0.7200 B88
 Correlation:  0.1900 VWN1RPA + 0.8100 LYP
 Using SG-1 standard quadrature grid
 SCF converges when DIIS error is below 1.0E-08
 CPU 0.00 s  wall 0.00 s
 Inaccurate integrated density:
   Number of electrons =    70
   Numerical integral  =    67.999453991130
   Relative error      =    -2.8579228698 %
 CPU 4.83 s  wall 4.83 s
 ---------------------------------------
  Cycle       Energy         DIIS Error
 ---------------------------------------
    1    -495.9815961632      4.68E-02
 CPU 0.00 s  wall 0.00 s
 CPU 5.32 s  wall 5.32 s
    2    -494.5185850603      1.09E-02
 CPU 0.00 s  wall 0.00 s
 CPU 5.33 s  wall 5.33 s
    3    -489.1595374162      2.87E-02
 CPU 0.00 s  wall 0.00 s
 CPU 5.33 s  wall 5.33 s
    4    -494.5926049972      9.89E-03
 CPU 0.00 s  wall 0.00 s
 CPU 5.29 s  wall 5.29 s
    5    -494.9113890426      3.43E-03
 CPU 0.00 s  wall 0.00 s
 CPU 5.28 s  wall 5.28 s
    6    -494.9521207114      2.16E-03
 CPU 0.00 s  wall 0.00 s
 CPU 5.23 s  wall 5.23 s
    7    -494.9651297307      1.00E-03
 CPU 0.00 s  wall 0.00 s
 CPU 5.21 s  wall 5.21 s
    8    -494.9676815908      4.56E-04
 CPU 0.00 s  wall 0.00 s
 CPU 5.19 s  wall 5.19 s
    9    -494.9684366869      7.86E-05
 CPU 0.00 s  wall 0.00 s
 CPU 5.11 s  wall 5.11 s
   10    -494.9684502123      4.71E-05
 CPU 0.00 s  wall 0.00 s
 CPU 5.06 s  wall 5.06 s
   11    -494.9684577098      1.16E-05
 CPU 0.00 s  wall 0.00 s
 CPU 5.01 s  wall 5.01 s
   12    -494.9684581365      6.36E-06
 CPU 0.00 s  wall 0.00 s
 CPU 4.94 s  wall 4.94 s
   13    -494.9684582674      2.14E-06
 CPU 0.00 s  wall 0.00 s
 CPU 4.88 s  wall 4.88 s
   14    -494.9684582849      5.86E-07
 CPU 0.00 s  wall 0.00 s
 CPU 4.74 s  wall 4.74 s
   15    -494.9684582880      1.26E-07
 CPU 0.00 s  wall 0.00 s
 CPU 4.63 s  wall 4.63 s
   16    -494.9684582868      3.00E-08
 CPU 0.00 s  wall 0.00 s
 CPU 4.18 s  wall 4.18 s
   17    -494.9684582867      9.73E-09 Convergence criterion met
 ---------------------------------------
 SCF time:  CPU 201.09 s  wall 200.49 s
 SCF   energy in the final basis set = -494.9684582867
 Total energy in the final basis set = -494.9684582867
 
 --------------------------------------------------------------
 
                    Orbital Energies (a.u.)
 --------------------------------------------------------------
 
 Alpha MOs
 -- Occupied --
-18.842 -18.810 -18.797 -18.733  -9.980  -9.965  -9.935  -9.912
 -9.896  -0.727  -0.696  -0.627  -0.607  -0.439  -0.389  -0.352
 -0.258  -0.180  -0.154  -0.143  -0.135  -0.115  -0.104  -0.095
 -0.090  -0.063  -0.058  -0.031  -0.022   0.025   0.047   0.062
  0.077   0.118   0.123
 -- Virtual --
  0.229   0.234   0.245   0.266   0.276   0.289   0.296   0.301
  0.303   0.310   0.332   0.337   0.339   0.353   0.362   0.375
  0.382   0.394   0.398   0.407   0.422   0.452   0.466   0.479
  0.486   0.498   0.511   0.522   0.528   0.540   0.545   0.555
  0.566   0.572   0.583   0.588   0.590   0.594   0.596   0.605
  0.625   0.645   0.646   0.655   0.670   0.676   0.680   0.707
  0.732   0.759   0.795   0.886   0.922   0.935   0.994   1.006
  1.029   1.036   1.044   1.077   1.117   1.132   1.161   1.167
  1.207   1.217   1.231   1.251   1.290   1.347   1.356   1.380
  1.393   1.430   1.436   1.505   1.506   1.545   1.579   1.599
  1.612   1.621   1.649   1.663   1.671   1.698   1.710   1.723
  1.734   1.757   1.794   1.813   1.883   1.893   1.957   1.975
  2.003   2.018   2.049   2.065   2.083   2.118   2.137   2.153
  2.186   2.193   2.225   2.239   2.258   2.272   2.290   2.315
  2.347   2.371   2.377   2.427   2.435   2.490   2.500   2.529
  2.586   2.610   2.680   2.712   2.726   2.755   2.827   2.840
  2.931   2.977   3.018   3.054   3.080   3.256   3.292   3.394
  3.444   3.488   3.528   4.415   4.482   4.557   4.596   4.657
  4.804   4.848   4.981   5.069
 --------------------------------------------------------------
 
          Ground-State Mulliken Net Atomic Charges

     Atom                 Charge (a.u.)
  ----------------------------------------
      1 C                     0.336083
      2 O                    -0.565854
      3 O                    -0.646759
      4 C                     0.259515
      5 C                    -0.663680
      6 O                    -0.420292
      7 C                     0.044828
      8 O                    -0.668594
      9 C                    -0.696610
     10 H                     0.168070
     11 H                     0.184397
     12 H                     0.166052
     13 H                     0.190057
     14 H                     0.150679
     15 H                     0.162107
  ----------------------------------------
  Sum of atomic charges =    -2.000000

 -----------------------------------------------------------------
                    Cartesian Multipole Moments
 -----------------------------------------------------------------
    Charge (ESU x 10^10)
                -9.6064
    Dipole Moment (Debye)
         X      -1.7005      Y       2.9650      Z      -0.9938
       Tot       3.5596
    Quadrupole Moments (Debye-Ang)
        XX    -111.2767     XY      -7.7132     YY     -83.9386
        XZ       3.8101     YZ       1.5405     ZZ     -65.0668
    Octopole Moments (Debye-Ang^2)
       XXX     -13.2317    XXY      12.5499    XYY       0.8744
       YYY      -5.6700    XXZ       2.3204    XYZ      -3.7024
       YYZ      -7.3328    XZZ      15.6976    YZZ      -6.6853
       ZZZ      11.5773
    Hexadecapole Moments (Debye-Ang^3)
      XXXX   -1377.3571   XXXY     -23.2112   XXYY    -307.3411
      XYYY      -6.8118   YYYY    -544.0650   XXXZ      27.4347
      XXYZ      -1.1356   XYYZ       4.1330   YYYZ      -4.2298
      XXZZ    -247.4004   XYZZ       8.6211   YYZZ    -138.2124
      XZZZ     -13.2975   YZZZ       3.0436   ZZZZ    -330.3351
 -----------------------------------------------------------------
 Calculating analytic gradient of the SCF energy
 CPU 0.00 s  wall 0.00 s
 CPU 8.24 s  wall 8.24 s
 Gradient of SCF Energy
            1           2           3           4           5           6
    1  -0.0589225  -0.0025546   0.0339211   0.0270802  -0.0494809  -0.0033425
    2   0.0207554  -0.0091475  -0.0272249   0.0942010   0.0461765  -0.0682494
    3  -0.0124940   0.0074631   0.0031530   0.0081171   0.0310668   0.0049973
            7           8           9          10          11          12
    1   0.0305392  -0.0078052   0.0060682  -0.0112278   0.0113148  -0.0068402
    2   0.0003250   0.0092236  -0.0833466   0.0104404   0.0335127   0.0173207
    3  -0.0291128   0.0035490   0.0296654  -0.0044876  -0.0168268   0.0026956
           13          14          15
    1   0.0022491   0.0136705   0.0153305
    2  -0.0466548   0.0025592   0.0001087
    3  -0.0161898  -0.0120479   0.0004516
 Max gradient component =       9.420E-02
 RMS gradient           =       3.018E-02
 Gradient time:  CPU 64.89 s  wall 64.90 s
 Geometry Optimization Parameters
   NAtoms,    NIC,     NZ,  NCons,   NDum,   NFix, NCnnct, MaxDiis
       15      96       0       0       0       0       0       0


** GEOMETRY OPTIMIZATION IN DELOCALIZED INTERNAL COORDINATES **
   Searching for a Minimum

   Optimization Cycle:   1

                       Coordinates (Angstroms)
     ATOM                X               Y               Z
      1  C         1.5993647577    0.2939649477   -0.0636083444
      2  O         1.4717752476    1.5239997604    0.1479059017
      3  O         2.7131774295   -0.3694086323   -0.2495702373
      4  C         0.3685977956   -0.5641231098    0.1155579763
      5  C        -1.5033602411    0.4330402734   -1.4549219810
      6  O         0.4890596794   -1.8256024416    0.3164057545
      7  C        -1.1196230033   -0.0713216741   -0.0059434586
      8  O        -2.0705190829   -0.9817017643    0.3420417958
      9  C        -1.3207498247    1.1093908299    0.9864475856
     10  H        -2.4100301548    1.3912446059    0.8995234154
     11  H        -0.7946307867    2.1001605835    0.5854437784
     12  H        -1.1035675305    1.0927206852    2.0620869105
     13  H        -1.7413323845   -0.6102672514   -1.9817005566
     14  H        -0.6371924413    0.8702440711   -2.0605878805
     15  H        -2.2865697953    1.1718943243   -1.4242220512
   Point Group: c1    Number of degrees of freedom:    39


   Energy is   -494.968458287


 Attempting to Generate Delocalized Internal Coordinates

 39 Hessian modes will be used to form the next step
  Hessian Eigenvalues:
     0.002000    0.002000    0.002000    0.004534    0.007720    0.009651
     0.035488    0.048710    0.050482    0.058294    0.063429    0.066248
     0.078804    0.160000    0.160000    0.160000    0.160000    0.160000
     0.160000    0.174708    0.191539    0.249641    0.250000    0.250000
     0.250000    0.251367    0.252033    0.253103    0.258318    0.271943
     0.292703    0.307165    0.312475    0.339632    0.363401    0.526155
     0.645787    0.721335    0.815627

 Minimum Search - Taking Simple RFO Step
 Searching for Lamda that Minimizes Along All modes
 Value Taken    Lamda =  -0.05082598
 Calculated Step too Large.  Step scaled by  0.543171
 Step Taken.  Stepsize is  0.300000

                             Maximum     Tolerance    Cnvgd?
         Gradient           0.049210      0.000300      NO
         Displacement       0.105688      0.001200      NO
         Energy change     *********      0.000001      NO


 New Cartesian Coordinates Obtained by Inverse Iteration

 Displacement from previous Coordinates is:  0.436802
 ----------------------------------------------------------------
             Standard Nuclear Orientation (Angstroms)
    I     Atom           X                Y                Z
 ----------------------------------------------------------------
    1      C       1.5909568801     0.2872120370    -0.0589337153
    2      O       1.4497797659     1.5323152887     0.0410338365
    3      O       2.6823678501    -0.3438341856    -0.3427177161
    4      C       0.3442509585    -0.5868172188     0.1407908185
    5      C      -1.4525643312     0.4222014112    -1.4463130113
    6      O       0.4864610614    -1.8155887912     0.3691974722
    7      C      -1.1449472124    -0.0793372708     0.0195401801
    8      O      -2.0936985816    -0.9997295921     0.3460024103
    9      C      -1.3470105098     1.1324728084     0.9874008289
   10      H      -2.4257637929     1.4128669958     0.9077830811
   11      H      -0.8041697136     2.0851923632     0.6249473964
   12      H      -1.1206655812     1.0526356961     2.0575315617
   13      H      -1.6987050063    -0.5576462809    -1.9907222110
   14      H      -0.5690921439     0.8568777547    -1.9986784557
   15      H      -2.2427999783     1.1654141921    -1.4420038679
 ----------------------------------------------------------------
 Molecular Point Group                 C1    NOp =  1
 Largest Abelian Subgroup              C1    NOp =  1
 Nuclear Repulsion Energy =   444.7613809959 hartrees
 There are       35 alpha and       35 beta electrons
 Applying Cartesian multipole field
    Component          Value
    ---------          -----
     (2,0,0)        1.00000E-11
     (0,2,0)        2.00000E-11
     (0,0,2)       -3.00000E-11
 Nucleus-field energy     =     0.0000000076 hartrees
 Requested basis set is 6-31+G(d)
 There are 57 shells and 183 basis functions
 A cutoff of  1.0D-11 yielded   1540 shell pairs
 There are     16484 function pairs
 Smallest overlap matrix eigenvalue = 2.82E-05
 Guess MOs from SCF MO coefficient file
 Reading MOs from coefficient file
 Reading MOs from coefficient file
 A restricted hybrid HF-DFT SCF calculation will be
 performed using Pulay DIIS extrapolation
 Exchange:     0.2000 Hartree-Fock + 0.0800 Slater + 0.7200 B88
 Correlation:  0.1900 VWN1RPA + 0.8100 LYP
 Using SG-1 standard quadrature grid
 SCF converges when DIIS error is below 1.0E-08
Geometry optimization detected.  Setting ReadMinima to 0
Setting SaveMinima to 0
 CPU 0.00 s  wall 0.00 s
 Inaccurate integrated density:
   Number of electrons =    70
   Numerical integral  =    70.078342492354
   Relative error      =     0.1119178462 %
 CPU 6.95 s  wall 6.95 s
 ---------------------------------------
  Cycle       Energy         DIIS Error
 ---------------------------------------
    1    -495.0062085388      2.63E-03
 CPU 0.00 s  wall 0.00 s
 CPU 5.28 s  wall 5.28 s
    2    -494.9886353340      5.91E-04
 CPU 0.00 s  wall 0.00 s
 CPU 5.27 s  wall 5.27 s
    3    -494.9857341961      1.13E-03
 CPU 0.00 s  wall 0.00 s
 CPU 5.25 s  wall 5.25 s
    4    -494.9901535837      2.04E-04
 CPU 0.00 s  wall 0.00 s
 CPU 5.19 s  wall 5.19 s
    5    -494.9902730508      9.54E-05
 CPU 0.00 s  wall 0.00 s
 CPU 5.14 s  wall 5.14 s
    6    -494.9903013184      3.50E-05
 CPU 0.00 s  wall 0.00 s
 CPU 5.06 s  wall 5.06 s
    7    -494.9903051382      1.26E-05
 CPU 0.00 s  wall 0.00 s
 CPU 5.00 s  wall 5.00 s
    8    -494.9903056797      5.23E-06
 CPU 0.00 s  wall 0.00 s
 CPU 4.91 s  wall 4.91 s
    9    -494.9903057677      1.71E-06
 CPU 0.00 s  wall 0.00 s
 CPU 4.85 s  wall 4.85 s
   10    -494.9903057781      7.08E-07
 CPU 0.00 s  wall 0.00 s
 CPU 4.76 s  wall 4.76 s
   11    -494.9903057803      3.32E-07
 CPU 0.00 s  wall 0.00 s
 CPU 4.71 s  wall 4.71 s
   12    -494.9903057816      1.44E-07
 CPU 0.00 s  wall 0.00 s
 CPU 4.62 s  wall 4.62 s
   13    -494.9903057809      3.06E-08
 CPU 0.00 s  wall 0.00 s
 CPU 4.39 s  wall 4.39 s
   14    -494.9903057824      7.57E-09 Convergence criterion met
 ---------------------------------------
 SCF time:  CPU 166.49 s  wall 165.99 s
 SCF   energy in the final basis set = -494.9903057824
 Total energy in the final basis set = -494.9903057824
 
 --------------------------------------------------------------
 
                    Orbital Energies (a.u.)
 --------------------------------------------------------------
 
 Alpha MOs
 -- Occupied --
-18.842 -18.805 -18.797 -18.734  -9.977  -9.963  -9.933  -9.904
 -9.892  -0.730  -0.704  -0.629  -0.606  -0.440  -0.391  -0.345
 -0.255  -0.178  -0.152  -0.140  -0.136  -0.117  -0.104  -0.096
 -0.093  -0.067  -0.060  -0.036  -0.023   0.022   0.048   0.063
  0.078   0.119   0.122
 -- Virtual --
  0.231   0.236   0.250   0.267   0.278   0.289   0.298   0.301
  0.305   0.310   0.333   0.337   0.340   0.356   0.360   0.375
  0.384   0.394   0.395   0.410   0.424   0.460   0.473   0.483
  0.492   0.497   0.513   0.523   0.531   0.541   0.547   0.555
  0.564   0.569   0.587   0.589   0.592   0.595   0.599   0.606
  0.624   0.647   0.648   0.659   0.672   0.679   0.682   0.712
  0.736   0.765   0.798   0.898   0.918   0.937   0.994   0.997
  1.032   1.036   1.045   1.081   1.116   1.138   1.154   1.165
  1.206   1.229   1.236   1.260   1.288   1.348   1.361   1.373
  1.396   1.435   1.446   1.506   1.522   1.550   1.586   1.606
  1.613   1.626   1.647   1.665   1.667   1.698   1.707   1.728
  1.730   1.773   1.793   1.800   1.876   1.896   1.958   1.979
  1.998   2.008   2.044   2.068   2.078   2.129   2.143   2.157
  2.190   2.192   2.230   2.242   2.259   2.278   2.301   2.326
  2.342   2.381   2.387   2.432   2.460   2.492   2.524   2.553
  2.589   2.621   2.676   2.715   2.729   2.760   2.830   2.856
  2.936   2.972   3.021   3.064   3.087   3.266   3.310   3.405
  3.444   3.497   3.530   4.426   4.490   4.568   4.603   4.656
  4.804   4.852   4.982   5.079
 --------------------------------------------------------------
 
          Ground-State Mulliken Net Atomic Charges

     Atom                 Charge (a.u.)
  ----------------------------------------
      1 C                     0.317665
      2 O                    -0.580358
      3 O                    -0.640655
      4 C                     0.287381
      5 C                    -0.650476
      6 O                    -0.417495
      7 C                     0.001163
      8 O                    -0.673177
      9 C                    -0.691604
     10 H                     0.169069
     11 H                     0.197554
     12 H                     0.164148
     13 H                     0.194909
     14 H                     0.164838
     15 H                     0.157040
  ----------------------------------------
  Sum of atomic charges =    -2.000000

 -----------------------------------------------------------------
                    Cartesian Multipole Moments
 -----------------------------------------------------------------
    Charge (ESU x 10^10)
                -9.6064
    Dipole Moment (Debye)
         X      -1.4120      Y       2.8474      Z      -0.6550
       Tot       3.2451
    Quadrupole Moments (Debye-Ang)
        XX    -110.8636     XY      -8.3032     YY     -83.7528
        XZ       5.1619     YZ       2.1729     ZZ     -65.1153
    Octopole Moments (Debye-Ang^2)
       XXX      -6.3388    XXY      12.5204    XYY       1.8302
       YYY      -5.3035    XXZ       4.9816    XYZ      -2.8928
       YYZ      -6.6331    XZZ      15.9628    YZZ      -6.5920
       ZZZ      11.5014
    Hexadecapole Moments (Debye-Ang^3)
      XXXX   -1359.9058   XXXY     -29.0407   XXYY    -306.7316
      XYYY     -11.5760   YYYY    -542.0218   XXXZ      46.6952
      XXYZ       2.2432   XYYZ       9.1932   YYYZ       2.2831
      XXZZ    -246.9475   XYZZ       8.1748   YYZZ    -138.9330
      XZZZ       0.2462   YZZZ       6.1692   ZZZZ    -329.6263
 -----------------------------------------------------------------
 Calculating analytic gradient of the SCF energy
 CPU 0.00 s  wall 0.00 s
 CPU 8.24 s  wall 8.24 s
 Gradient of SCF Energy
            1           2           3           4           5           6
    1  -0.0393767  -0.0000349   0.0233161   0.0157449  -0.0362699  -0.0020806
    2   0.0087004  -0.0068663  -0.0141819   0.0624787   0.0286287  -0.0429293
    3   0.0120977  -0.0014734  -0.0060422  -0.0021357   0.0208069   0.0036241
            7           8           9          10          11          12
    1   0.0264911  -0.0086760   0.0006650  -0.0061109   0.0067464  -0.0040863
    2   0.0006343   0.0030004  -0.0585057   0.0087442   0.0242299   0.0133025
    3  -0.0204502   0.0027679   0.0208264  -0.0033082  -0.0101460   0.0013150
           13          14          15
    1   0.0033435   0.0095294   0.0107988
    2  -0.0286271   0.0003125   0.0010787
    3  -0.0103664  -0.0088768   0.0013608
 Max gradient component =       6.248E-02
 RMS gradient           =       2.030E-02
 Gradient time:  CPU 64.68 s  wall 64.67 s
 Geometry Optimization Parameters
   NAtoms,    NIC,     NZ,  NCons,   NDum,   NFix, NCnnct, MaxDiis
       15      96       0       0       0       0       0       0

 Cartesian Hessian Update
 Hessian Updated using BFGS Update


** GEOMETRY OPTIMIZATION IN DELOCALIZED INTERNAL COORDINATES **
   Searching for a Minimum

   Optimization Cycle:   2

                       Coordinates (Angstroms)
     ATOM                X               Y               Z
      1  C         1.5909568801    0.2872120370   -0.0589337153
      2  O         1.4497797659    1.5323152887    0.0410338365
      3  O         2.6823678501   -0.3438341856   -0.3427177161
      4  C         0.3442509585   -0.5868172188    0.1407908185
      5  C        -1.4525643312    0.4222014112   -1.4463130113
      6  O         0.4864610614   -1.8155887912    0.3691974722
      7  C        -1.1449472124   -0.0793372708    0.0195401801
      8  O        -2.0936985816   -0.9997295921    0.3460024103
      9  C        -1.3470105098    1.1324728084    0.9874008289
     10  H        -2.4257637929    1.4128669958    0.9077830811
     11  H        -0.8041697136    2.0851923632    0.6249473964
     12  H        -1.1206655812    1.0526356961    2.0575315617
     13  H        -1.6987050063   -0.5576462809   -1.9907222110
     14  H        -0.5690921439    0.8568777547   -1.9986784557
     15  H        -2.2427999783    1.1654141921   -1.4420038679
   Point Group: c1    Number of degrees of freedom:    39


   Energy is   -494.990305782

 Hessian Updated using BFGS Update

 33 Hessian modes will be used to form the next step
  Hessian Eigenvalues:
     0.001997    0.002012    0.004547    0.007717    0.014307    0.035526
     0.048887    0.050461    0.058030    0.062878    0.070040    0.078104
     0.139975    0.162961    0.175062    0.192623    0.215311    0.249763
     0.250187    0.251331    0.252422    0.258257    0.263888    0.276064
     0.290248    0.304918    0.308705    0.339946    0.362551    0.527732
     0.610210    0.689395    0.815329

 Minimum Search - Taking Simple RFO Step
 Searching for Lamda that Minimizes Along All modes
 Value Taken    Lamda =  -0.04298229
 Calculated Step too Large.  Step scaled by  0.423510
 Step Taken.  Stepsize is  0.300000

                             Maximum     Tolerance    Cnvgd?
         Gradient           0.035429      0.000300      NO
         Displacement       0.146982      0.001200      NO
         Energy change     -0.021847      0.000001      NO


 New Cartesian Coordinates Obtained by Inverse Iteration

 Displacement from previous Coordinates is:  0.279354
 ----------------------------------------------------------------
             Standard Nuclear Orientation (Angstroms)
    I     Atom           X                Y                Z
 ----------------------------------------------------------------
    1      C       1.5726094840     0.2972653169    -0.1175382750
    2      O       1.4369398024     1.5402241078     0.0475388668
    3      O       2.6645882007    -0.3172616065    -0.3299737794
    4      C       0.3203767775    -0.6055511186     0.1360667539
    5      C      -1.4303651780     0.4025270268    -1.4457014722
    6      O       0.4983823558    -1.7958822880     0.3814335495
    7      C      -1.1726063138    -0.0843687090     0.0342791528
    8      O      -2.1113259657    -1.0060817035     0.3699695047
    9      C      -1.3503264758     1.1606458989     0.9740304012
   10      H      -2.4191464027     1.4376209788     0.9170019888
   11      H      -0.7944327268     2.0611024613     0.6327106706
   12      H      -1.0979029316     1.0057530506     2.0306030415
   13      H      -1.6948796488    -0.5127931330    -1.9965097288
   14      H      -0.5405611082     0.8292851620    -1.9571970716
   15      H      -2.2269502046     1.1517497637    -1.4618549942
 ----------------------------------------------------------------
 Molecular Point Group                 C1    NOp =  1
 Largest Abelian Subgroup              C1    NOp =  1
 Nuclear Repulsion Energy =   445.9139778740 hartrees
 There are       35 alpha and       35 beta electrons
 Applying Cartesian multipole field
    Component          Value
    ---------          -----
     (2,0,0)        1.00000E-11
     (0,2,0)        2.00000E-11
     (0,0,2)       -3.00000E-11
 Nucleus-field energy     =     0.0000000076 hartrees
 Requested basis set is 6-31+G(d)
 There are 57 shells and 183 basis functions
 A cutoff of  1.0D-11 yielded   1543 shell pairs
 There are     16497 function pairs
 Smallest overlap matrix eigenvalue = 2.80E-05
 Guess MOs from SCF MO coefficient file
 Reading MOs from coefficient file
 Reading MOs from coefficient file
 A restricted hybrid HF-DFT SCF calculation will be
 performed using Pulay DIIS extrapolation
 Exchange:     0.2000 Hartree-Fock + 0.0800 Slater + 0.7200 B88
 Correlation:  0.1900 VWN1RPA + 0.8100 LYP
 Using SG-1 standard quadrature grid
 SCF converges when DIIS error is below 1.0E-08
Geometry optimization detected.  Setting ReadMinima to 0
Setting SaveMinima to 0
 CPU 0.00 s  wall 0.00 s
 Inaccurate integrated density:
   Number of electrons =    70
   Numerical integral  =    70.089338878209
   Relative error      =     0.1276269689 %
 CPU 6.95 s  wall 6.95 s
 ---------------------------------------
  Cycle       Energy         DIIS Error
 ---------------------------------------
    1    -495.0282033330      2.32E-03
 CPU 0.00 s  wall 0.00 s
 CPU 5.28 s  wall 5.28 s
    2    -495.0008351209      5.38E-04
 CPU 0.00 s  wall 0.00 s
 CPU 5.29 s  wall 5.29 s
    3    -494.9981347515      1.08E-03
 CPU 0.00 s  wall 0.00 s
 CPU 5.25 s  wall 5.25 s
    4    -495.0020600094      1.46E-04
 CPU 0.00 s  wall 0.00 s
 CPU 5.19 s  wall 5.19 s
    5    -495.0021191739      8.22E-05
 CPU 0.00 s  wall 0.00 s
 CPU 5.13 s  wall 5.14 s
    6    -495.0021403939      3.12E-05
 CPU 0.00 s  wall 0.00 s
 CPU 5.09 s  wall 5.09 s
    7    -495.0021436535      8.88E-06
 CPU 0.00 s  wall 0.00 s
 CPU 5.03 s  wall 5.03 s
    8    -495.0021440130      4.35E-06
 CPU 0.00 s  wall 0.00 s
 CPU 4.94 s  wall 4.94 s
    9    -495.0021440871      1.30E-06
 CPU 0.00 s  wall 0.00 s
 CPU 4.90 s  wall 4.90 s
   10    -495.0021440968      5.71E-07
 CPU 0.00 s  wall 0.00 s
 CPU 4.77 s  wall 4.77 s
   11    -495.0021440973      2.38E-07
 CPU 0.00 s  wall 0.00 s
 CPU 4.70 s  wall 4.70 s
   12    -495.0021440973      1.19E-07
 CPU 0.00 s  wall 0.00 s
 CPU 4.53 s  wall 4.53 s
   13    -495.0021440971      2.64E-08
 CPU 0.00 s  wall 0.00 s
 CPU 4.36 s  wall 4.36 s
   14    -495.0021440972      6.49E-09 Convergence criterion met
 ---------------------------------------
 SCF time:  CPU 166.02 s  wall 165.58 s
 SCF   energy in the final basis set = -495.0021440972
 Total energy in the final basis set = -495.0021440972
 
 --------------------------------------------------------------
 
                    Orbital Energies (a.u.)
 --------------------------------------------------------------
 
 Alpha MOs
 -- Occupied --
-18.843 -18.801 -18.796 -18.734  -9.974  -9.959  -9.929  -9.896
 -9.885  -0.738  -0.711  -0.632  -0.605  -0.442  -0.393  -0.337
 -0.249  -0.177  -0.152  -0.142  -0.136  -0.121  -0.103  -0.101
 -0.093  -0.071  -0.063  -0.040  -0.025   0.019   0.048   0.063
  0.080   0.120   0.122
 -- Virtual --
  0.231   0.239   0.258   0.267   0.278   0.289   0.300   0.302
  0.305   0.310   0.333   0.337   0.340   0.355   0.359   0.375
  0.385   0.391   0.399   0.414   0.424   0.468   0.480   0.487
  0.498   0.501   0.515   0.524   0.531   0.542   0.548   0.556
  0.565   0.569   0.587   0.591   0.594   0.595   0.605   0.611
  0.623   0.648   0.650   0.662   0.671   0.682   0.686   0.715
  0.741   0.773   0.801   0.906   0.921   0.942   0.991   0.996
  1.033   1.036   1.050   1.084   1.114   1.134   1.150   1.176
  1.205   1.241   1.243   1.265   1.290   1.345   1.373   1.394
  1.405   1.441   1.457   1.511   1.516   1.551   1.591   1.607
  1.615   1.621   1.651   1.664   1.670   1.702   1.705   1.725
  1.733   1.770   1.789   1.817   1.866   1.891   1.961   1.983
  1.988   2.006   2.041   2.070   2.076   2.140   2.141   2.172
  2.187   2.193   2.236   2.253   2.262   2.274   2.316   2.323
  2.351   2.380   2.400   2.445   2.461   2.518   2.564   2.583
  2.595   2.639   2.669   2.717   2.752   2.763   2.837   2.854
  2.943   2.980   3.028   3.079   3.098   3.285   3.324   3.397
  3.458   3.510   3.546   4.429   4.495   4.577   4.615   4.664
  4.804   4.857   4.991   5.088
 --------------------------------------------------------------
 
          Ground-State Mulliken Net Atomic Charges

     Atom                 Charge (a.u.)
  ----------------------------------------
      1 C                     0.287766
      2 O                    -0.586801
      3 O                    -0.627076
      4 C                     0.326151
      5 C                    -0.620647
      6 O                    -0.415146
      7 C                    -0.076297
      8 O                    -0.677166
      9 C                    -0.682268
     10 H                     0.167438
     11 H                     0.212614
     12 H                     0.165348
     13 H                     0.199751
     14 H                     0.172840
     15 H                     0.153494
  ----------------------------------------
  Sum of atomic charges =    -2.000000

 -----------------------------------------------------------------
                    Cartesian Multipole Moments
 -----------------------------------------------------------------
    Charge (ESU x 10^10)
                -9.6064
    Dipole Moment (Debye)
         X      -1.1540      Y       2.6043      Z      -0.8851
       Tot       2.9829
    Quadrupole Moments (Debye-Ang)
        XX    -110.8211     XY      -8.7500     YY     -83.4004
        XZ       5.1997     YZ       2.2545     ZZ     -65.1164
    Octopole Moments (Debye-Ang^2)
       XXX      -1.1413    XXY      11.5201    XYY       2.7632
       YYY      -6.5777    XXZ       3.6614    XYZ      -3.2735
       YYZ      -6.6903    XZZ      17.0270    YZZ      -7.0454
       ZZZ      10.6951
    Hexadecapole Moments (Debye-Ang^3)
      XXXX   -1352.5830   XXXY     -35.2528   XXYY    -306.3349
      XYYY     -16.2568   YYYY    -537.8591   XXXZ      49.6359
      XXYZ       3.0822   XYYZ      10.2319   YYYZ       4.0558
      XXZZ    -246.4148   XYZZ       7.5901   YYZZ    -138.9351
      XZZZ       3.7772   YZZZ       6.5987   ZZZZ    -328.9317
 -----------------------------------------------------------------
 Calculating analytic gradient of the SCF energy
 CPU 0.00 s  wall 0.00 s
 CPU 8.25 s  wall 8.25 s
 Gradient of SCF Energy
            1           2           3           4           5           6
    1  -0.0240109   0.0033745   0.0081797   0.0121624  -0.0227557  -0.0021789
    2   0.0016937  -0.0057078  -0.0031352   0.0196625   0.0064290  -0.0089634
    3  -0.0122598   0.0051012   0.0061075   0.0075476   0.0059927  -0.0022039
            7           8           9          10          11          12
    1   0.0194926  -0.0065154   0.0004932  -0.0000396  -0.0015374  -0.0013183
    2   0.0008984   0.0002770  -0.0273904   0.0059709   0.0084329   0.0075801
    3  -0.0150070   0.0027318   0.0104449  -0.0027467  -0.0031193   0.0006656
           13          14          15
    1   0.0058650   0.0031953   0.0055934
    2  -0.0046627  -0.0029677   0.0018825
    3  -0.0001441  -0.0043028   0.0011923
 Max gradient component =       2.739E-02
 RMS gradient           =       9.454E-03
 Gradient time:  CPU 64.81 s  wall 64.81 s
 Geometry Optimization Parameters
   NAtoms,    NIC,     NZ,  NCons,   NDum,   NFix, NCnnct, MaxDiis
       15      96       0       0       0       0       0       0

 Cartesian Hessian Update
 Hessian Updated using BFGS Update


** GEOMETRY OPTIMIZATION IN DELOCALIZED INTERNAL COORDINATES **
   Searching for a Minimum

   Optimization Cycle:   3

                       Coordinates (Angstroms)
     ATOM                X               Y               Z
      1  C         1.5726094840    0.2972653169   -0.1175382750
      2  O         1.4369398024    1.5402241078    0.0475388668
      3  O         2.6645882007   -0.3172616065   -0.3299737794
      4  C         0.3203767775   -0.6055511186    0.1360667539
      5  C        -1.4303651780    0.4025270268   -1.4457014722
      6  O         0.4983823558   -1.7958822880    0.3814335495
      7  C        -1.1726063138   -0.0843687090    0.0342791528
      8  O        -2.1113259657   -1.0060817035    0.3699695047
      9  C        -1.3503264758    1.1606458989    0.9740304012
     10  H        -2.4191464027    1.4376209788    0.9170019888
     11  H        -0.7944327268    2.0611024613    0.6327106706
     12  H        -1.0979029316    1.0057530506    2.0306030415
     13  H        -1.6948796488   -0.5127931330   -1.9965097288
     14  H        -0.5405611082    0.8292851620   -1.9571970716
     15  H        -2.2269502046    1.1517497637   -1.4618549942
   Point Group: c1    Number of degrees of freedom:    39


   Energy is   -495.002144097

 Hessian Updated using BFGS Update

 36 Hessian modes will be used to form the next step
  Hessian Eigenvalues:
     0.001997    0.002000    0.002014    0.004549    0.007719    0.035461
     0.040436    0.049628    0.050528    0.057800    0.062757    0.067339
     0.078992    0.141451    0.160018    0.163182    0.174216    0.192425
     0.235404    0.249894    0.250071    0.251253    0.251793    0.254158
     0.258766    0.270590    0.280700    0.289001    0.303181    0.313622
     0.340016    0.362608    0.526315    0.623980    0.703261    0.815962

 Minimum Search - Taking Simple RFO Step
 Searching for Lamda that Minimizes Along All modes
 Value Taken    Lamda =  -0.01579319
 Calculated Step too Large.  Step scaled by  0.561457
 Step Taken.  Stepsize is  0.300000

                             Maximum     Tolerance    Cnvgd?
         Gradient           0.015847      0.000300      NO
         Displacement       0.129624      0.001200      NO
         Energy change     -0.011838      0.000001      NO


 New Cartesian Coordinates Obtained by Inverse Iteration

 Displacement from previous Coordinates is:  0.518777
 ----------------------------------------------------------------
             Standard Nuclear Orientation (Angstroms)
    I     Atom           X                Y                Z
 ----------------------------------------------------------------
    1      C       1.5591432192     0.3009072770    -0.1244648465
    2      O       1.3852491517     1.5540944592    -0.0864222375
    3      O       2.6156835361    -0.3133493928    -0.4310402185
    4      C       0.2980696512    -0.6162703855     0.1769346026
    5      C      -1.3773957272     0.4040439193    -1.4371485983
    6      O       0.4959281549    -1.7795048450     0.4709644705
    7      C      -1.1961931424    -0.0836005420     0.0570589736
    8      O      -2.1346746029    -1.0026664487     0.3701818135
    9      C      -1.3663533132     1.1721143222     0.9831140854
   10      H      -2.4323396173     1.4429859358     0.9215474590
   11      H      -0.7709818303     2.0320053570     0.6700135803
   12      H      -1.1266301500     0.9407076217     2.0307418393
   13      H      -1.6354540276    -0.4822956978    -2.0177389943
   14      H      -0.4719751492     0.8507229977    -1.8814512096
   15      H      -2.1876764884     1.1443406298    -1.4874321110
 ----------------------------------------------------------------
 Molecular Point Group                 C1    NOp =  1
 Largest Abelian Subgroup              C1    NOp =  1
 Nuclear Repulsion Energy =   446.8054317547 hartrees
 There are       35 alpha and       35 beta electrons
 Applying Cartesian multipole field
    Component          Value
    ---------          -----
     (2,0,0)        1.00000E-11
     (0,2,0)        2.00000E-11
     (0,0,2)       -3.00000E-11
 Nucleus-field energy     =     0.0000000073 hartrees
 Requested basis set is 6-31+G(d)
 There are 57 shells and 183 basis functions
 A cutoff of  1.0D-11 yielded   1546 shell pairs
 There are     16543 function pairs
 Smallest overlap matrix eigenvalue = 2.69E-05
 Guess MOs from SCF MO coefficient file
 Reading MOs from coefficient file
 Reading MOs from coefficient file
 A restricted hybrid HF-DFT SCF calculation will be
 performed using Pulay DIIS extrapolation
 Exchange:     0.2000 Hartree-Fock + 0.0800 Slater + 0.7200 B88
 Correlation:  0.1900 VWN1RPA + 0.8100 LYP
 Using SG-1 standard quadrature grid
 SCF converges when DIIS error is below 1.0E-08
Geometry optimization detected.  Setting ReadMinima to 0
Setting SaveMinima to 0
 CPU 0.00 s  wall 0.00 s
 CPU 6.96 s  wall 6.96 s
 ---------------------------------------
  Cycle       Energy         DIIS Error
 ---------------------------------------
    1    -495.0106816361      2.68E-03
 CPU 0.00 s  wall 0.00 s
 CPU 5.28 s  wall 5.28 s
    2    -495.0061504588      4.78E-04
 CPU 0.00 s  wall 0.00 s
 CPU 5.26 s  wall 5.26 s
    3    -495.0040417741      9.63E-04
 CPU 0.00 s  wall 0.00 s
 CPU 5.26 s  wall 5.26 s
    4    -495.0071527196      1.46E-04
 CPU 0.00 s  wall 0.00 s
 CPU 5.19 s  wall 5.19 s
    5    -495.0072175588      6.01E-05
 CPU 0.00 s  wall 0.00 s
 CPU 5.16 s  wall 5.16 s
    6    -495.0072280386      3.09E-05
 CPU 0.00 s  wall 0.00 s
 CPU 5.09 s  wall 5.09 s
    7    -495.0072311591      9.84E-06
 CPU 0.00 s  wall 0.00 s
 CPU 5.03 s  wall 5.03 s
    8    -495.0072315384      2.53E-06
 CPU 0.00 s  wall 0.00 s
 CPU 4.97 s  wall 4.97 s
    9    -495.0072315692      8.70E-07
 CPU 0.00 s  wall 0.00 s
 CPU 4.86 s  wall 4.86 s
   10    -495.0072315753      3.21E-07
 CPU 0.00 s  wall 0.00 s
 CPU 4.77 s  wall 4.77 s
   11    -495.0072315746      2.67E-07
 CPU 0.00 s  wall 0.00 s
 CPU 4.64 s  wall 4.64 s
   12    -495.0072315752      3.92E-08
 CPU 0.00 s  wall 0.00 s
 CPU 4.43 s  wall 4.43 s
   13    -495.0072315750      1.21E-08
 CPU 0.00 s  wall 0.00 s
 CPU 4.19 s  wall 4.19 s
   14    -495.0072315753      9.02E-09 Convergence criterion met
 ---------------------------------------
 SCF time:  CPU 165.47 s  wall 165.00 s
 SCF   energy in the final basis set = -495.0072315753
 Total energy in the final basis set = -495.0072315753
 
 --------------------------------------------------------------
 
                    Orbital Energies (a.u.)
 --------------------------------------------------------------
 
 Alpha MOs
 -- Occupied --
-18.843 -18.799 -18.799 -18.735  -9.973  -9.957  -9.927  -9.890
 -9.882  -0.742  -0.714  -0.635  -0.608  -0.442  -0.393  -0.330
 -0.245  -0.175  -0.151  -0.144  -0.133  -0.121  -0.108  -0.104
 -0.089  -0.072  -0.063  -0.041  -0.027   0.016   0.047   0.062
  0.081   0.119   0.123
 -- Virtual --
  0.233   0.240   0.263   0.268   0.280   0.288   0.301   0.304
  0.306   0.310   0.333   0.337   0.341   0.355   0.358   0.374
  0.383   0.392   0.395   0.417   0.426   0.470   0.484   0.491
  0.496   0.507   0.518   0.523   0.532   0.542   0.547   0.556
  0.565   0.568   0.585   0.590   0.596   0.597   0.608   0.612
  0.620   0.647   0.649   0.663   0.673   0.681   0.692   0.720
  0.741   0.777   0.803   0.913   0.921   0.947   0.984   1.001
  1.032   1.043   1.058   1.090   1.110   1.130   1.154   1.168
  1.200   1.246   1.251   1.267   1.291   1.341   1.355   1.404
  1.408   1.443   1.463   1.519   1.531   1.558   1.593   1.607
  1.617   1.633   1.648   1.666   1.669   1.700   1.706   1.721
  1.733   1.781   1.793   1.809   1.854   1.897   1.957   1.974
  1.986   2.004   2.039   2.068   2.077   2.139   2.152   2.177
  2.184   2.193   2.232   2.252   2.261   2.283   2.318   2.328
  2.363   2.386   2.404   2.454   2.474   2.511   2.575   2.593
  2.596   2.645   2.675   2.718   2.740   2.778   2.845   2.857
  2.951   2.976   3.033   3.093   3.106   3.283   3.336   3.397
  3.452   3.510   3.552   4.438   4.503   4.589   4.624   4.668
  4.799   4.849   4.991   5.089
 --------------------------------------------------------------
 
          Ground-State Mulliken Net Atomic Charges

     Atom                 Charge (a.u.)
  ----------------------------------------
      1 C                     0.274599
      2 O                    -0.596155
      3 O                    -0.617507
      4 C                     0.347055
      5 C                    -0.614696
      6 O                    -0.418009
      7 C                    -0.109637
      8 O                    -0.675346
      9 C                    -0.676319
     10 H                     0.168160
     11 H                     0.220980
     12 H                     0.165474
     13 H                     0.195079
     14 H                     0.187558
     15 H                     0.148765
  ----------------------------------------
  Sum of atomic charges =    -2.000000

 -----------------------------------------------------------------
                    Cartesian Multipole Moments
 -----------------------------------------------------------------
    Charge (ESU x 10^10)
                -9.6064
    Dipole Moment (Debye)
         X      -0.7508      Y       2.4623      Z      -0.4580
       Tot       2.6147
    Quadrupole Moments (Debye-Ang)
        XX    -109.8002     XY      -8.7720     YY     -83.3501
        XZ       6.4949     YZ       3.1060     ZZ     -65.6949
    Octopole Moments (Debye-Ang^2)
       XXX       7.7009    XXY      11.4778    XYY       4.0391
       YYY      -8.1619    XXZ       6.5457    XYZ      -1.9077
       YYZ      -6.0675    XZZ      17.2081    YZZ      -7.2300
       ZZZ      11.3319
    Hexadecapole Moments (Debye-Ang^3)
      XXXX   -1322.1701   XXXY     -36.5312   XXYY    -303.2127
      XYYY     -17.1372   YYYY    -536.3780   XXXZ      68.6321
      XXYZ       7.2441   XYYZ      15.7205   YYYZ      13.4697
      XXZZ    -246.4498   XYZZ       7.8712   YYZZ    -141.4255
      XZZZ      17.0087   YZZZ      12.3017   ZZZZ    -335.9775
 -----------------------------------------------------------------
 Calculating analytic gradient of the SCF energy
 CPU 0.00 s  wall 0.00 s
 CPU 8.35 s  wall 8.35 s
 Gradient of SCF Energy
            1           2           3           4           5           6
    1  -0.0015444  -0.0018048  -0.0024120   0.0051329  -0.0122098  -0.0018543
    2  -0.0043991  -0.0004690   0.0005637  -0.0033195  -0.0012468   0.0081036
    3   0.0081811  -0.0027711  -0.0011990   0.0018070   0.0000041  -0.0050467
            7           8           9          10          11          12
    1   0.0120096  -0.0032763   0.0012325   0.0006324  -0.0047613   0.0003931
    2   0.0024571   0.0003129  -0.0068770   0.0023729  -0.0012618   0.0024505
    3  -0.0043691   0.0014342   0.0025906  -0.0021488  -0.0000489   0.0002543
           13          14          15
    1   0.0041803   0.0012384   0.0030439
    2   0.0025191  -0.0028641   0.0016574
    3   0.0025408  -0.0018678   0.0006393
 Max gradient component =       1.221E-02
 RMS gradient           =       4.022E-03
 Gradient time:  CPU 65.30 s  wall 65.30 s
 Geometry Optimization Parameters
   NAtoms,    NIC,     NZ,  NCons,   NDum,   NFix, NCnnct, MaxDiis
       15      96       0       0       0       0       0       0

 Cartesian Hessian Update
 Hessian Updated using BFGS Update


** GEOMETRY OPTIMIZATION IN DELOCALIZED INTERNAL COORDINATES **
   Searching for a Minimum

   Optimization Cycle:   4

                       Coordinates (Angstroms)
     ATOM                X               Y               Z
      1  C         1.5591432192    0.3009072770   -0.1244648465
      2  O         1.3852491517    1.5540944592   -0.0864222375
      3  O         2.6156835361   -0.3133493928   -0.4310402185
      4  C         0.2980696512   -0.6162703855    0.1769346026
      5  C        -1.3773957272    0.4040439193   -1.4371485983
      6  O         0.4959281549   -1.7795048450    0.4709644705
      7  C        -1.1961931424   -0.0836005420    0.0570589736
      8  O        -2.1346746029   -1.0026664487    0.3701818135
      9  C        -1.3663533132    1.1721143222    0.9831140854
     10  H        -2.4323396173    1.4429859358    0.9215474590
     11  H        -0.7709818303    2.0320053570    0.6700135803
     12  H        -1.1266301500    0.9407076217    2.0307418393
     13  H        -1.6354540276   -0.4822956978   -2.0177389943
     14  H        -0.4719751492    0.8507229977   -1.8814512096
     15  H        -2.1876764884    1.1443406298   -1.4874321110
   Point Group: c1    Number of degrees of freedom:    39


   Energy is   -495.007231575

 Hessian Updated using BFGS Update

 37 Hessian modes will be used to form the next step
  Hessian Eigenvalues:
     0.001989    0.002001    0.002019    0.004546    0.007680    0.035512
     0.046984    0.050280    0.052012    0.061393    0.065014    0.077424
     0.098152    0.143222    0.160014    0.160222    0.163120    0.176957
     0.193094    0.240356    0.249937    0.251132    0.251250    0.252933
     0.254180    0.259680    0.273800    0.280349    0.288175    0.302225
     0.313830    0.340015    0.362588    0.526146    0.635451    0.729778
     0.815471

 Minimum Search - Taking Simple RFO Step
 Searching for Lamda that Minimizes Along All modes
 Value Taken    Lamda =  -0.00507253
 Calculated Step too Large.  Step scaled by  0.495295
 Step Taken.  Stepsize is  0.300000

                             Maximum     Tolerance    Cnvgd?
         Gradient           0.006516      0.000300      NO
         Displacement       0.147855      0.001200      NO
         Energy change     -0.005087      0.000001      NO


 New Cartesian Coordinates Obtained by Inverse Iteration

 Displacement from previous Coordinates is:  0.431660
 ----------------------------------------------------------------
             Standard Nuclear Orientation (Angstroms)
    I     Atom           X                Y                Z
 ----------------------------------------------------------------
    1      C       1.5542205851     0.2881525583    -0.1865746121
    2      O       1.3976563660     1.5448448346    -0.1816407096
    3      O       2.6049287346    -0.3455520787    -0.4723899074
    4      C       0.2880646596    -0.6111943166     0.1934096249
    5      C      -1.3534224125     0.4170521995    -1.4315692899
    6      O       0.4935151205    -1.7492487966     0.5777442196
    7      C      -1.2106976272    -0.0826450826     0.0640738194
    8      O      -2.1433378394    -1.0127326910     0.3528811725
    9      C      -1.3835413213     1.1726657659     0.9943427526
   10      H      -2.4480754110     1.4464602047     0.9286000909
   11      H      -0.7584949931     2.0240654718     0.7082171430
   12      H      -1.1629050712     0.9043363480     2.0376175614
   13      H      -1.5597248575    -0.4686409593    -2.0420551191
   14      H      -0.4597028695     0.9252778074    -1.8276148898
   15      H      -2.2040833984     1.1113939428    -1.5001832479
 ----------------------------------------------------------------
 Molecular Point Group                 C1    NOp =  1
 Largest Abelian Subgroup              C1    NOp =  1
 Nuclear Repulsion Energy =   446.1547739258 hartrees
 There are       35 alpha and       35 beta electrons
 Applying Cartesian multipole field
    Component          Value
    ---------          -----
     (2,0,0)        1.00000E-11
     (0,2,0)        2.00000E-11
     (0,0,2)       -3.00000E-11
 Nucleus-field energy     =     0.0000000071 hartrees
 Requested basis set is 6-31+G(d)
 There are 57 shells and 183 basis functions
 A cutoff of  1.0D-11 yielded   1543 shell pairs
 There are     16537 function pairs
 Smallest overlap matrix eigenvalue = 2.66E-05
 Guess MOs from SCF MO coefficient file
 Reading MOs from coefficient file
 Reading MOs from coefficient file
 A restricted hybrid HF-DFT SCF calculation will be
 performed using Pulay DIIS extrapolation
 Exchange:     0.2000 Hartree-Fock + 0.0800 Slater + 0.7200 B88
 Correlation:  0.1900 VWN1RPA + 0.8100 LYP
 Using SG-1 standard quadrature grid
 SCF converges when DIIS error is below 1.0E-08
Geometry optimization detected.  Setting ReadMinima to 0
Setting SaveMinima to 0
 CPU 0.00 s  wall 0.00 s
 CPU 6.99 s  wall 6.99 s
 ---------------------------------------
  Cycle       Energy         DIIS Error
 ---------------------------------------
    1    -494.9986512551      1.92E-03
 CPU 0.00 s  wall 0.00 s
 CPU 5.29 s  wall 5.29 s
    2    -495.0088079069      2.71E-04
 CPU 0.00 s  wall 0.00 s
 CPU 5.26 s  wall 5.26 s
    3    -495.0083996104      4.75E-04
 CPU 0.00 s  wall 0.00 s
 CPU 5.21 s  wall 5.21 s
    4    -495.0091681022      7.94E-05
 CPU 0.00 s  wall 0.00 s
 CPU 5.18 s  wall 5.18 s
    5    -495.0091876728      3.24E-05
 CPU 0.00 s  wall 0.00 s
 CPU 5.10 s  wall 5.10 s
    6    -495.0091913275      1.40E-05
 CPU 0.00 s  wall 0.00 s
 CPU 5.04 s  wall 5.04 s
    7    -495.0091918836      6.42E-06
 CPU 0.00 s  wall 0.00 s
 CPU 4.95 s  wall 4.95 s
    8    -495.0091920082      2.52E-06
 CPU 0.00 s  wall 0.00 s
 CPU 4.85 s  wall 4.85 s
    9    -495.0091920301      6.67E-07
 CPU 0.00 s  wall 0.00 s
 CPU 4.81 s  wall 4.81 s
   10    -495.0091920305      2.61E-07
 CPU 0.00 s  wall 0.00 s
 CPU 4.68 s  wall 4.68 s
   11    -495.0091920312      1.26E-07
 CPU 0.00 s  wall 0.00 s
 CPU 4.55 s  wall 4.55 s
   12    -495.0091920307      4.76E-08
 CPU 0.00 s  wall 0.00 s
 CPU 4.41 s  wall 4.41 s
   13    -495.0091920317      8.57E-09 Convergence criterion met
 ---------------------------------------
 SCF time:  CPU 153.98 s  wall 153.46 s
 SCF   energy in the final basis set = -495.0091920317
 Total energy in the final basis set = -495.0091920317
 
 --------------------------------------------------------------
 
                    Orbital Energies (a.u.)
 --------------------------------------------------------------
 
 Alpha MOs
 -- Occupied --
-18.844 -18.800 -18.799 -18.737  -9.974  -9.958  -9.928  -9.889
 -9.885  -0.741  -0.714  -0.635  -0.609  -0.442  -0.393  -0.328
 -0.243  -0.174  -0.150  -0.145  -0.132  -0.121  -0.111  -0.104
 -0.088  -0.073  -0.062  -0.041  -0.028   0.015   0.047   0.062
  0.080   0.118   0.122
 -- Virtual --
  0.234   0.239   0.264   0.267   0.280   0.288   0.301   0.304
  0.306   0.310   0.334   0.338   0.341   0.354   0.358   0.374
  0.382   0.391   0.395   0.418   0.426   0.470   0.484   0.492
  0.496   0.504   0.516   0.521   0.531   0.542   0.546   0.554
  0.564   0.568   0.582   0.590   0.596   0.597   0.607   0.610
  0.619   0.644   0.646   0.663   0.673   0.682   0.691   0.722
  0.738   0.778   0.802   0.911   0.922   0.944   0.981   1.001
  1.032   1.047   1.064   1.090   1.104   1.123   1.154   1.169
  1.194   1.244   1.249   1.270   1.288   1.338   1.357   1.400
  1.408   1.445   1.458   1.525   1.530   1.555   1.595   1.610
  1.617   1.631   1.647   1.664   1.672   1.701   1.707   1.719
  1.735   1.778   1.795   1.814   1.846   1.893   1.957   1.965
  1.985   2.002   2.034   2.064   2.075   2.141   2.152   2.179
  2.182   2.192   2.230   2.249   2.262   2.278   2.313   2.329
  2.367   2.382   2.404   2.455   2.473   2.513   2.569   2.583
  2.593   2.635   2.674   2.716   2.737   2.778   2.839   2.856
  2.944   2.978   3.029   3.093   3.102   3.274   3.332   3.394
  3.451   3.504   3.548   4.436   4.502   4.586   4.631   4.662
  4.792   4.845   4.988   5.081
 --------------------------------------------------------------
 
          Ground-State Mulliken Net Atomic Charges

     Atom                 Charge (a.u.)
  ----------------------------------------
      1 C                     0.268874
      2 O                    -0.597775
      3 O                    -0.614990
      4 C                     0.346568
      5 C                    -0.623293
      6 O                    -0.420405
      7 C                    -0.094243
      8 O                    -0.673857
      9 C                    -0.679633
     10 H                     0.168458
     11 H                     0.218759
     12 H                     0.168260
     13 H                     0.190241
     14 H                     0.195322
     15 H                     0.147714
  ----------------------------------------
  Sum of atomic charges =    -2.000000

 -----------------------------------------------------------------
                    Cartesian Multipole Moments
 -----------------------------------------------------------------
    Charge (ESU x 10^10)
                -9.6064
    Dipole Moment (Debye)
         X      -0.7385      Y       2.5454      Z      -0.2821
       Tot       2.6653
    Quadrupole Moments (Debye-Ang)
        XX    -109.7583     XY      -8.5942     YY     -83.1260
        XZ       6.8580     YZ       3.8212     ZZ     -66.1935
    Octopole Moments (Debye-Ang^2)
       XXX       9.2566    XXY      12.4270    XYY       4.5488
       YYY      -8.3715    XXZ       8.5849    XYZ      -0.9835
       YYZ      -5.5575    XZZ      16.6258    YZZ      -6.6651
       ZZZ      12.1990
    Hexadecapole Moments (Debye-Ang^3)
      XXXX   -1320.3133   XXXY     -34.4654   XXYY    -303.5909
      XYYY     -15.3527   YYYY    -530.0622   XXXZ      78.3972
      XXYZ       9.4332   XYYZ      18.9987   YYYZ      21.5403
      XXZZ    -248.7901   XYZZ       8.7383   YYZZ    -143.5734
      XZZZ      24.4771   YZZZ      17.8662   ZZZZ    -343.5522
 -----------------------------------------------------------------
 Calculating analytic gradient of the SCF energy
 CPU 0.00 s  wall 0.00 s
 CPU 8.30 s  wall 8.30 s
 Gradient of SCF Energy
            1           2           3           4           5           6
    1  -0.0017129   0.0000981  -0.0009500   0.0025191  -0.0063454  -0.0012982
    2  -0.0026650   0.0003741   0.0008519  -0.0024237  -0.0007405   0.0034108
    3   0.0036916  -0.0021180   0.0003268  -0.0004270   0.0005347  -0.0034432
            7           8           9          10          11          12
    1   0.0075344  -0.0028052  -0.0008189   0.0000272  -0.0025193   0.0005760
    2   0.0034754  -0.0022845  -0.0020855   0.0006144  -0.0005015   0.0010397
    3   0.0013714   0.0006644   0.0007218  -0.0010769   0.0002023  -0.0002884
           13          14          15
    1   0.0018295   0.0015186   0.0023471
    2   0.0007911  -0.0014120   0.0015552
    3   0.0012771  -0.0017509   0.0003143
 Max gradient component =       7.534E-03
 RMS gradient           =       2.257E-03
 Gradient time:  CPU 64.80 s  wall 64.80 s
 Geometry Optimization Parameters
   NAtoms,    NIC,     NZ,  NCons,   NDum,   NFix, NCnnct, MaxDiis
       15      96       0       0       0       0       0       0

 Cartesian Hessian Update
 Hessian Updated using BFGS Update


** GEOMETRY OPTIMIZATION IN DELOCALIZED INTERNAL COORDINATES **
   Searching for a Minimum

   Optimization Cycle:   5

                       Coordinates (Angstroms)
     ATOM                X               Y               Z
      1  C         1.5542205851    0.2881525583   -0.1865746121
      2  O         1.3976563660    1.5448448346   -0.1816407096
      3  O         2.6049287346   -0.3455520787   -0.4723899074
      4  C         0.2880646596   -0.6111943166    0.1934096249
      5  C        -1.3534224125    0.4170521995   -1.4315692899
      6  O         0.4935151205   -1.7492487966    0.5777442196
      7  C        -1.2106976272   -0.0826450826    0.0640738194
      8  O        -2.1433378394   -1.0127326910    0.3528811725
      9  C        -1.3835413213    1.1726657659    0.9943427526
     10  H        -2.4480754110    1.4464602047    0.9286000909
     11  H        -0.7584949931    2.0240654718    0.7082171430
     12  H        -1.1629050712    0.9043363480    2.0376175614
     13  H        -1.5597248575   -0.4686409593   -2.0420551191
     14  H        -0.4597028695    0.9252778074   -1.8276148898
     15  H        -2.2040833984    1.1113939428   -1.5001832479
   Point Group: c1    Number of degrees of freedom:    39


   Energy is   -495.009192032

 Hessian Updated using BFGS Update

 38 Hessian modes will be used to form the next step
  Hessian Eigenvalues:
     0.001665    0.002002    0.003351    0.004508    0.006701    0.035427
     0.042058    0.050505    0.054201    0.060947    0.072703    0.077168
     0.100235    0.142545    0.160013    0.160042    0.161185    0.163044
     0.183150    0.198333    0.239527    0.249941    0.251197    0.252377
     0.253485    0.255175    0.263422    0.275011    0.283459    0.285865
     0.305025    0.317659    0.340196    0.362659    0.529753    0.633060
     0.723158    0.816183

 Minimum Search - Taking Simple RFO Step
 Searching for Lamda that Minimizes Along All modes
 Value Taken    Lamda =  -0.00351110
 Calculated Step too Large.  Step scaled by  0.447772
 Step Taken.  Stepsize is  0.300000

                             Maximum     Tolerance    Cnvgd?
         Gradient           0.003739      0.000300      NO
         Displacement       0.185566      0.001200      NO
         Energy change     -0.001960      0.000001      NO


 New Cartesian Coordinates Obtained by Inverse Iteration

 Displacement from previous Coordinates is:  0.332399
 ----------------------------------------------------------------
             Standard Nuclear Orientation (Angstroms)
    I     Atom           X                Y                Z
 ----------------------------------------------------------------
    1      C       1.5480199314     0.2896758355    -0.1934372126
    2      O       1.4068322705     1.5467991038    -0.1284505915
    3      O       2.5849136259    -0.3439672942    -0.5255994040
    4      C       0.2775331052    -0.6130024295     0.1992500523
    5      C      -1.3545136507     0.4124042160    -1.4368680510
    6      O       0.4903063095    -1.7369638638     0.6248841573
    7      C      -1.2245059659    -0.0863543668     0.0609976317
    8      O      -2.1560032638    -1.0108796634     0.3546930104
    9      C      -1.3712772310     1.1783177543     0.9860775909
   10      H      -2.4266786022     1.4820712561     0.9171166992
   11      H      -0.7033617599     2.0032135900     0.7122890696
   12      H      -1.1707999425     0.8854894291     2.0274480134
   13      H      -1.5051629529    -0.4751077458    -2.0651581453
   14      H      -0.4893844051     0.9854962883    -1.7992281090
   15      H      -2.2515178039     1.0470430987    -1.5191561028
 ----------------------------------------------------------------
 Molecular Point Group                 C1    NOp =  1
 Largest Abelian Subgroup              C1    NOp =  1
 Nuclear Repulsion Energy =   445.8431176895 hartrees
 There are       35 alpha and       35 beta electrons
 Applying Cartesian multipole field
    Component          Value
    ---------          -----
     (2,0,0)        1.00000E-11
     (0,2,0)        2.00000E-11
     (0,0,2)       -3.00000E-11
 Nucleus-field energy     =     0.0000000070 hartrees
 Requested basis set is 6-31+G(d)
 There are 57 shells and 183 basis functions
 A cutoff of  1.0D-11 yielded   1546 shell pairs
 There are     16545 function pairs
 Smallest overlap matrix eigenvalue = 2.70E-05
 Guess MOs from SCF MO coefficient file
 Reading MOs from coefficient file
 Reading MOs from coefficient file
 A restricted hybrid HF-DFT SCF calculation will be
 performed using Pulay DIIS extrapolation
 Exchange:     0.2000 Hartree-Fock + 0.0800 Slater + 0.7200 B88
 Correlation:  0.1900 VWN1RPA + 0.8100 LYP
 Using SG-1 standard quadrature grid
 SCF converges when DIIS error is below 1.0E-08
Geometry optimization detected.  Setting ReadMinima to 0
Setting SaveMinima to 0
 CPU 0.00 s  wall 0.00 s
 CPU 6.98 s  wall 6.98 s
 ---------------------------------------
  Cycle       Energy         DIIS Error
 ---------------------------------------
    1    -495.0043499210      1.54E-03
 CPU 0.00 s  wall 0.00 s
 CPU 5.28 s  wall 5.28 s
    2    -495.0102376685      2.17E-04
 CPU 0.00 s  wall 0.00 s
 CPU 5.24 s  wall 5.24 s
    3    -495.0097337055      4.61E-04
 CPU 0.00 s  wall 0.00 s
 CPU 5.22 s  wall 5.22 s
    4    -495.0104597112      4.42E-05
 CPU 0.00 s  wall 0.00 s
 CPU 5.16 s  wall 5.16 s
    5    -495.0104650852      2.61E-05
 CPU 0.00 s  wall 0.00 s
 CPU 5.08 s  wall 5.08 s
    6    -495.0104667503      1.53E-05
 CPU 0.00 s  wall 0.00 s
 CPU 5.04 s  wall 5.04 s
    7    -495.0104674914      4.05E-06
 CPU 0.00 s  wall 0.00 s
 CPU 4.95 s  wall 4.95 s
    8    -495.0104675466      1.52E-06
 CPU 0.00 s  wall 0.00 s
 CPU 4.81 s  wall 4.81 s
    9    -495.0104675539      3.44E-07
 CPU 0.00 s  wall 0.00 s
 CPU 4.74 s  wall 4.74 s
   10    -495.0104675553      1.94E-07
 CPU 0.00 s  wall 0.00 s
 CPU 4.58 s  wall 4.58 s
   11    -495.0104675550      6.41E-08
 CPU 0.00 s  wall 0.00 s
 CPU 4.48 s  wall 4.48 s
   12    -495.0104675543      1.19E-08
 CPU 0.00 s  wall 0.00 s
 CPU 4.06 s  wall 4.06 s
   13    -495.0104675548      4.00E-09 Convergence criterion met
 ---------------------------------------
 SCF time:  CPU 151.95 s  wall 151.38 s
 SCF   energy in the final basis set = -495.0104675548
 Total energy in the final basis set = -495.0104675548
 
 --------------------------------------------------------------
 
                    Orbital Energies (a.u.)
 --------------------------------------------------------------
 
 Alpha MOs
 -- Occupied --
-18.844 -18.801 -18.800 -18.738  -9.975  -9.958  -9.929  -9.890
 -9.884  -0.740  -0.714  -0.636  -0.610  -0.443  -0.393  -0.326
 -0.242  -0.174  -0.150  -0.146  -0.132  -0.122  -0.110  -0.105
 -0.088  -0.072  -0.062  -0.041  -0.030   0.014   0.046   0.061
  0.079   0.116   0.122
 -- Virtual --
  0.234   0.240   0.265   0.268   0.280   0.287   0.301   0.304
  0.306   0.311   0.334   0.337   0.342   0.353   0.357   0.374
  0.381   0.388   0.395   0.417   0.427   0.469   0.484   0.493
  0.497   0.503   0.515   0.522   0.532   0.541   0.545   0.553
  0.562   0.569   0.580   0.591   0.594   0.596   0.606   0.607
  0.617   0.641   0.646   0.663   0.671   0.682   0.690   0.721
  0.737   0.777   0.802   0.907   0.925   0.941   0.982   1.001
  1.032   1.048   1.069   1.090   1.100   1.121   1.152   1.170
  1.192   1.241   1.249   1.272   1.286   1.335   1.350   1.400
  1.411   1.443   1.459   1.524   1.529   1.560   1.597   1.613
  1.614   1.628   1.648   1.663   1.670   1.699   1.711   1.720
  1.735   1.778   1.795   1.820   1.844   1.896   1.956   1.963
  1.978   1.996   2.031   2.060   2.074   2.141   2.151   2.176
  2.182   2.194   2.229   2.246   2.261   2.271   2.311   2.329
  2.369   2.380   2.408   2.454   2.474   2.517   2.564   2.576
  2.591   2.629   2.676   2.714   2.730   2.782   2.833   2.861
  2.940   2.980   3.025   3.093   3.105   3.262   3.331   3.391
  3.450   3.496   3.544   4.441   4.503   4.585   4.638   4.663
  4.786   4.832   4.980   5.066
 --------------------------------------------------------------
 
          Ground-State Mulliken Net Atomic Charges

     Atom                 Charge (a.u.)
  ----------------------------------------
      1 C                     0.266965
      2 O                    -0.595382
      3 O                    -0.612106
      4 C                     0.345087
      5 C                    -0.615607
      6 O                    -0.422541
      7 C                    -0.125202
      8 O                    -0.671210
      9 C                    -0.663446
     10 H                     0.164497
     11 H                     0.223727
     12 H                     0.170834
     13 H                     0.187297
     14 H                     0.196785
     15 H                     0.150302
  ----------------------------------------
  Sum of atomic charges =    -2.000000

 -----------------------------------------------------------------
                    Cartesian Multipole Moments
 -----------------------------------------------------------------
    Charge (ESU x 10^10)
                -9.6064
    Dipole Moment (Debye)
         X      -0.6751      Y       2.5282      Z      -0.3561
       Tot       2.6409
    Quadrupole Moments (Debye-Ang)
        XX    -109.6472     XY      -8.6424     YY     -82.9921
        XZ       6.9954     YZ       3.6040     ZZ     -66.5540
    Octopole Moments (Debye-Ang^2)
       XXX      11.9751    XXY      12.0657    XYY       4.8990
       YYY      -8.8933    XXZ       9.1369    XYZ      -1.4723
       YYZ      -6.4487    XZZ      16.3126    YZZ      -6.2273
       ZZZ      11.9217
    Hexadecapole Moments (Debye-Ang^3)
      XXXX   -1314.7709   XXXY     -37.6570   XXYY    -303.4992
      XYYY     -16.8990   YYYY    -527.9647   XXXZ      80.8092
      XXYZ       8.1990   XYYZ      18.1091   YYYZ      20.8494
      XXZZ    -250.1826   XYZZ       8.5786   YYZZ    -144.3131
      XZZZ      24.5249   YZZZ      17.3269   ZZZZ    -347.9659
 -----------------------------------------------------------------
 Calculating analytic gradient of the SCF energy
 CPU 0.00 s  wall 0.00 s
 CPU 8.22 s  wall 8.22 s
 Gradient of SCF Energy
            1           2           3           4           5           6
    1  -0.0001234  -0.0004546   0.0000370  -0.0000284  -0.0008778  -0.0006766
    2  -0.0010866   0.0011260   0.0007932  -0.0023554  -0.0001271   0.0009155
    3   0.0015271  -0.0010398   0.0011178  -0.0012548  -0.0005381  -0.0020535
            7           8           9          10          11          12
    1   0.0036195  -0.0018130  -0.0014669   0.0004140  -0.0002019   0.0006173
    2   0.0024625  -0.0024455   0.0000316  -0.0003670   0.0004141  -0.0000279
    3   0.0028742   0.0009604  -0.0004039  -0.0004126  -0.0002277  -0.0003242
           13          14          15
    1  -0.0002685   0.0000889   0.0011345
    2   0.0000967  -0.0007027   0.0012725
    3   0.0006590  -0.0005787  -0.0003052
 Max gradient component =       3.619E-03
 RMS gradient           =       1.222E-03
 Gradient time:  CPU 64.70 s  wall 64.71 s
 Geometry Optimization Parameters
   NAtoms,    NIC,     NZ,  NCons,   NDum,   NFix, NCnnct, MaxDiis
       15      96       0       0       0       0       0       0

 Cartesian Hessian Update
 Hessian Updated using BFGS Update


** GEOMETRY OPTIMIZATION IN DELOCALIZED INTERNAL COORDINATES **
   Searching for a Minimum

   Optimization Cycle:   6

                       Coordinates (Angstroms)
     ATOM                X               Y               Z
      1  C         1.5480199314    0.2896758355   -0.1934372126
      2  O         1.4068322705    1.5467991038   -0.1284505915
      3  O         2.5849136259   -0.3439672942   -0.5255994040
      4  C         0.2775331052   -0.6130024295    0.1992500523
      5  C        -1.3545136507    0.4124042160   -1.4368680510
      6  O         0.4903063095   -1.7369638638    0.6248841573
      7  C        -1.2245059659   -0.0863543668    0.0609976317
      8  O        -2.1560032638   -1.0108796634    0.3546930104
      9  C        -1.3712772310    1.1783177543    0.9860775909
     10  H        -2.4266786022    1.4820712561    0.9171166992
     11  H        -0.7033617599    2.0032135900    0.7122890696
     12  H        -1.1707999425    0.8854894291    2.0274480134
     13  H        -1.5051629529   -0.4751077458   -2.0651581453
     14  H        -0.4893844051    0.9854962883   -1.7992281090
     15  H        -2.2515178039    1.0470430987   -1.5191561028
   Point Group: c1    Number of degrees of freedom:    39


   Energy is   -495.010467555

 Hessian Updated using BFGS Update

 39 Hessian modes will be used to form the next step
  Hessian Eigenvalues:
     0.001084    0.002009    0.003144    0.005057    0.008611    0.035626
     0.050504    0.052319    0.059338    0.062657    0.074974    0.077663
     0.103447    0.144560    0.160000    0.160017    0.160240    0.162801
     0.162990    0.184381    0.196626    0.239714    0.250867    0.251262
     0.253420    0.254085    0.259807    0.270639    0.275592    0.284361
     0.300791    0.308811    0.319885    0.340252    0.362776    0.524472
     0.633005    0.726628    0.818655

 Minimum Search - Taking Simple RFO Step
 Searching for Lamda that Minimizes Along All modes
 Value Taken    Lamda =  -0.00353492
 Calculated Step too Large.  Step scaled by  0.356258
 Step Taken.  Stepsize is  0.300000

                             Maximum     Tolerance    Cnvgd?
         Gradient           0.003057      0.000300      NO
         Displacement       0.211657      0.001200      NO
         Energy change     -0.001276      0.000001      NO


 New Cartesian Coordinates Obtained by Inverse Iteration

 Displacement from previous Coordinates is:  0.422376
 ----------------------------------------------------------------
             Standard Nuclear Orientation (Angstroms)
    I     Atom           X                Y                Z
 ----------------------------------------------------------------
    1      C       1.5472687399     0.2754301118    -0.2366447201
    2      O       1.4420891791     1.5352963695    -0.1622639524
    3      O       2.5482765762    -0.3861318115    -0.6211805060
    4      C       0.2761511136    -0.5963444900     0.2351930114
    5      C      -1.3345359991     0.4214188334    -1.4327575989
    6      O       0.4952579633    -1.6999252217     0.7124831759
    7      C      -1.2307517278    -0.0847438860     0.0640908474
    8      O      -2.1573404834    -1.0145088012     0.3389062446
    9      C      -1.3892164024     1.1764819396     0.9946719440
   10      H      -2.4394292668     1.4930403645     0.9076182509
   11      H      -0.6978260521     1.9914361382     0.7477625446
   12      H      -1.2197172396     0.8639383377     2.0363462545
   13      H      -1.4223369728    -0.4619869083    -2.0809735314
   14      H      -0.4950468519     1.0514589858    -1.7538328703
   15      H      -2.2684429116     0.9993752462    -1.5345604858
 ----------------------------------------------------------------
 Molecular Point Group                 C1    NOp =  1
 Largest Abelian Subgroup              C1    NOp =  1
 Nuclear Repulsion Energy =   445.4621958455 hartrees
 There are       35 alpha and       35 beta electrons
 Applying Cartesian multipole field
    Component          Value
    ---------          -----
     (2,0,0)        1.00000E-11
     (0,2,0)        2.00000E-11
     (0,0,2)       -3.00000E-11
 Nucleus-field energy     =     0.0000000067 hartrees
 Requested basis set is 6-31+G(d)
 There are 57 shells and 183 basis functions
 A cutoff of  1.0D-11 yielded   1543 shell pairs
 There are     16532 function pairs
 Smallest overlap matrix eigenvalue = 2.71E-05
 Guess MOs from SCF MO coefficient file
 Reading MOs from coefficient file
 Reading MOs from coefficient file
 A restricted hybrid HF-DFT SCF calculation will be
 performed using Pulay DIIS extrapolation
 Exchange:     0.2000 Hartree-Fock + 0.0800 Slater + 0.7200 B88
 Correlation:  0.1900 VWN1RPA + 0.8100 LYP
 Using SG-1 standard quadrature grid
 SCF converges when DIIS error is below 1.0E-08
Geometry optimization detected.  Setting ReadMinima to 0
Setting SaveMinima to 0
 CPU 0.00 s  wall 0.00 s
 CPU 6.85 s  wall 6.85 s
 ---------------------------------------
  Cycle       Energy         DIIS Error
 ---------------------------------------
    1    -495.0069342175      1.83E-03
 CPU 0.00 s  wall 0.00 s
 CPU 5.17 s  wall 5.17 s
    2    -495.0113066629      1.86E-04
 CPU 0.00 s  wall 0.00 s
 CPU 5.13 s  wall 5.13 s
    3    -495.0111633102      3.15E-04
 CPU 0.00 s  wall 0.00 s
 CPU 5.08 s  wall 5.08 s
    4    -495.0114962734      6.07E-05
 CPU 0.00 s  wall 0.00 s
 CPU 5.05 s  wall 5.05 s
    5    -495.0115072571      2.36E-05
 CPU 0.00 s  wall 0.00 s
 CPU 4.98 s  wall 4.98 s
    6    -495.0115090833      1.16E-05
 CPU 0.00 s  wall 0.00 s
 CPU 4.89 s  wall 4.89 s
    7    -495.0115094651      5.02E-06
 CPU 0.00 s  wall 0.00 s
 CPU 4.84 s  wall 4.84 s
    8    -495.0115095431      1.64E-06
 CPU 0.00 s  wall 0.00 s
 CPU 4.74 s  wall 4.74 s
    9    -495.0115095513      5.26E-07
 CPU 0.00 s  wall 0.00 s
 CPU 4.68 s  wall 4.68 s
   10    -495.0115095528      1.54E-07
 CPU 0.00 s  wall 0.00 s
 CPU 4.53 s  wall 4.53 s
   11    -495.0115095532      9.41E-08
 CPU 0.00 s  wall 0.00 s
 CPU 4.31 s  wall 4.31 s
   12    -495.0115095524      2.20E-08
 CPU 0.00 s  wall 0.00 s
 CPU 4.11 s  wall 4.11 s
   13    -495.0115095535      5.43E-09 Convergence criterion met
 ---------------------------------------
 SCF time:  CPU 148.58 s  wall 148.20 s
 SCF   energy in the final basis set = -495.0115095535
[...]
 132. (0.00005) RY*(13) C  7             s( 17.11%)p 2.96( 50.65%)d 1.88( 32.24%)
 133. (0.00002) RY*(14) C  7             s( 70.14%)p 0.24( 17.08%)d 0.18( 12.78%)
 134. (0.00313) RY*( 1) O  8             s(  0.58%)p99.99( 98.54%)d 1.50(  0.88%)
                                         0.0000 -0.0027  0.0523  0.0556 -0.0004
                                         0.0088 -0.7610  0.1226 -0.0071  0.5578
                                        -0.1023  0.0004 -0.2636 -0.0059  0.0112
                                         0.0004  0.0399  0.0801 -0.0253
 135. (0.00250) RY*( 2) O  8             s(  0.20%)p99.99( 97.91%)d 9.54(  1.89%)
                                         0.0000 -0.0001  0.0423 -0.0099  0.0097
                                        -0.0004  0.1041 -0.0321  0.0047 -0.2922
                                         0.0216  0.0099 -0.9307  0.1229 -0.0027
                                         0.0699  0.1019 -0.0380 -0.0465
 136. (0.00036) RY*( 3) O  8             s( 72.89%)p 0.35( 25.15%)d 0.03(  1.96%)
                                         0.0000  0.0037  0.5901  0.6165 -0.0244
                                         0.0115  0.2412  0.2734  0.0069  0.1664
                                        -0.0639  0.0000  0.0240  0.2933  0.0489
                                        -0.0679  0.0017 -0.1024 -0.0458
 137. (0.00025) RY*( 4) O  8             s(  7.49%)p12.10( 90.64%)d 0.25(  1.88%)
                                         0.0000  0.0013  0.1794  0.2039  0.0334
                                         0.0075  0.0233 -0.6455  0.0029  0.2150
                                         0.6387 -0.0012 -0.0465 -0.1809  0.1098
                                        -0.0194  0.0340  0.0718  0.0044
 138. (0.00020) RY*( 5) O  8             s(  7.23%)p12.74( 92.08%)d 0.10(  0.69%)
                                         0.0000  0.0000  0.2036  0.1740 -0.0234
                                         0.0010  0.0534  0.0709  0.0009 -0.0768
                                        -0.2825  0.0023 -0.0859 -0.9054  0.0434
                                         0.0349  0.0289 -0.0395  0.0380
 139. (0.00013) RY*( 6) O  8             s( 21.24%)p 3.27( 69.48%)d 0.44(  9.29%)
                                         0.0000 -0.0055  0.1014  0.3213  0.3144
                                        -0.0112 -0.4966 -0.2397 -0.0199 -0.5901
                                        -0.0941  0.0053  0.1556  0.0943 -0.2166
                                        -0.0547  0.0934 -0.0984  0.1567
 140. (0.00009) RY*( 7) O  8             s( 20.24%)p 2.51( 50.74%)d 1.43( 29.02%)
 141. (0.00004) RY*( 8) O  8             s( 58.60%)p 0.19( 11.43%)d 0.51( 29.97%)
 142. (0.00001) RY*( 9) O  8             s( 82.60%)p 0.03(  2.81%)d 0.18( 14.58%)
 143. (0.00001) RY*(10) O  8             s( 23.41%)p 1.94( 45.34%)d 1.33( 31.25%)
 144. (0.00000) RY*(11) O  8             s(  1.53%)p 2.52(  3.85%)d62.00( 94.63%)
 145. (0.00001) RY*(12) O  8             s(  1.61%)p 1.83(  2.95%)d59.13( 95.44%)
 146. (0.00000) RY*(13) O  8             s(  1.71%)p 2.69(  4.62%)d54.66( 93.67%)
 147. (0.00001) RY*(14) O  8             s(  0.67%)p 7.32(  4.90%)d99.99( 94.43%)
 148. (0.01289) RY*( 1) C  9             s( 30.22%)p 2.29( 69.15%)d 0.02(  0.64%)
                                         0.0000  0.0045  0.5497 -0.0023  0.0004
                                         0.0010  0.4816 -0.0438 -0.0223 -0.3923
                                         0.2064 -0.0120 -0.5103 -0.0103  0.0499
                                         0.0016 -0.0075 -0.0270 -0.0557
 149. (0.00170) RY*( 2) C  9             s(  6.00%)p13.64( 81.77%)d 2.04( 12.23%)
                                         0.0000 -0.0013 -0.0221  0.2371  0.0571
                                        -0.0003  0.3621  0.2010 -0.0036  0.6798
                                         0.4136 -0.0045 -0.0992 -0.0559 -0.1421
                                        -0.1557 -0.0240  0.2127  0.1790
 150. (0.00147) RY*( 3) C  9             s( 22.28%)p 2.70( 60.05%)d 0.79( 17.67%)
                                         0.0000 -0.0093  0.2103  0.4221 -0.0171
                                         0.0049  0.2966 -0.0638 -0.0059 -0.1529
                                         0.0410  0.0101  0.6583  0.2235 -0.2098
                                        -0.0517 -0.0356  0.0058 -0.3587
 151. (0.00087) RY*( 4) C  9             s( 34.87%)p 1.83( 63.65%)d 0.04(  1.48%)
                                         0.0000 -0.0077  0.5488  0.1933 -0.1001
                                         0.0083 -0.4878 -0.4585  0.0012  0.2573
                                         0.0989  0.0042  0.0153 -0.3347 -0.0214
                                         0.0309  0.0613  0.0881 -0.0430
 152. (0.00039) RY*( 5) C  9             s( 10.66%)p 6.97( 74.27%)d 1.41( 15.07%)
                                         0.0000 -0.0127  0.1272  0.2405  0.1801
                                        -0.0062 -0.3542  0.1347 -0.0041  0.0949
                                         0.2054  0.0055 -0.1665  0.7211  0.3712
                                         0.0525 -0.0002 -0.0761 -0.0665
 153. (0.00025) RY*( 6) C  9             s( 43.53%)p 0.99( 43.20%)d 0.30( 13.26%)
                                         0.0000  0.0026 -0.4561  0.4680  0.0906
                                        -0.0160  0.1905 -0.5953  0.0023 -0.1141
                                         0.0685 -0.0006 -0.1227 -0.0911  0.3247
                                        -0.0136  0.0610 -0.0931  0.1211
 154. (0.00012) RY*( 7) C  9             s( 33.64%)p 1.70( 57.21%)d 0.27(  9.15%)
                                         0.0000  0.0121  0.1292  0.5629 -0.0526
                                        -0.0037 -0.0160  0.3880  0.0076  0.0129
                                        -0.6076  0.0047 -0.1806 -0.1385  0.0049
                                        -0.0850  0.2360 -0.0780  0.1500
 155. (0.00008) RY*( 8) C  9             s( 11.00%)p 3.34( 36.71%)d 4.75( 52.29%)
 156. (0.00007) RY*( 9) C  9             s(  4.43%)p14.21( 63.00%)d 7.34( 32.57%)
 157. (0.00003) RY*(10) C  9             s(  8.75%)p 3.37( 29.51%)d 7.06( 61.75%)
 158. (0.00001) RY*(11) C  9             s(  0.57%)p16.42(  9.32%)d99.99( 90.11%)
 159. (0.00001) RY*(12) C  9             s(  0.80%)p 5.52(  4.41%)d99.99( 94.79%)
 160. (0.00000) RY*(13) C  9             s( 89.22%)p 0.06(  4.99%)d 0.06(  5.79%)
 161. (0.00000) RY*(14) C  9             s(  4.05%)p 0.76(  3.07%)d22.93( 92.88%)
 162. (0.00294) RY*( 1) H 10             s(100.00%)
                                        -0.0044  1.0000
 163. (0.00180) RY*( 1) H 11             s(100.00%)
                                        -0.0042  1.0000
 164. (0.00132) RY*( 1) H 12             s(100.00%)
                                        -0.0019  1.0000
 165. (0.00117) RY*( 1) H 13             s(100.00%)
                                        -0.0017  1.0000
 166. (0.00148) RY*( 1) H 14             s(100.00%)
                                        -0.0035  1.0000
 167. (0.00233) RY*( 1) H 15             s(100.00%)
                                        -0.0031  1.0000
 168. (0.05847) BD*( 1) C  1- O  2       
               ( 65.49%)   0.8093* C  1 s( 34.02%)p 1.94( 65.82%)d 0.00(  0.16%)
                                         0.0001 -0.5817  0.0411 -0.0008 -0.0062
                                        -0.2561 -0.0336  0.0045 -0.7264 -0.0501
                                        -0.0022 -0.2476 -0.0041 -0.0058 -0.0143
                                        -0.0116 -0.0201  0.0264  0.0134
               ( 34.51%)  -0.5874* O  2 s( 37.52%)p 1.66( 62.22%)d 0.01(  0.25%)
                                         0.0000 -0.6124  0.0109  0.0089 -0.0033
                                         0.2468 -0.0026 -0.0017  0.6927 -0.0223
                                        -0.0008  0.2844 -0.0114  0.0012 -0.0222
                                        -0.0112 -0.0273  0.0306  0.0157
 169. (0.06614) BD*( 1) C  1- O  3       
               ( 65.74%)   0.8108* C  1 s( 33.47%)p 1.98( 66.37%)d 0.00(  0.16%)
                                        -0.0001  0.5770 -0.0412  0.0004  0.0057
                                         0.4501  0.0318 -0.0006 -0.4523 -0.0074
                                        -0.0076 -0.5029 -0.0491 -0.0009 -0.0230
                                        -0.0194  0.0251 -0.0036  0.0083
               ( 34.26%)  -0.5853* O  3 s( 36.64%)p 1.72( 63.10%)d 0.01(  0.26%)
                                         0.0000  0.6052 -0.0117 -0.0087  0.0031
                                        -0.2054  0.0055  0.0008  0.3111 -0.0143
                                         0.0009  0.7010 -0.0189 -0.0009 -0.0155
                                        -0.0234  0.0331 -0.0045  0.0256
 170. (0.38068) BD*( 2) C  1- O  3       
               ( 75.93%)   0.8714* C  1 s(  0.82%)p99.99( 98.85%)d 0.40(  0.33%)
                                         0.0001 -0.0903  0.0072  0.0062  0.0001
                                         0.5585 -0.0338  0.0091 -0.3733  0.0208
                                        -0.0081  0.7315 -0.0180  0.0022 -0.0252
                                        -0.0133 -0.0055 -0.0018 -0.0494
               ( 24.07%)  -0.4906* O  3 s(  1.13%)p86.98( 98.67%)d 0.17(  0.20%)
                                         0.0000 -0.1064  0.0035  0.0012 -0.0009
                                         0.6793 -0.0066  0.0011 -0.5080  0.0061
                                         0.0001  0.5167 -0.0017  0.0004  0.0251
                                         0.0142 -0.0071 -0.0014  0.0332
 171. (0.13155) BD*( 1) C  1- C  4       
               ( 51.96%)   0.7208* C  1 s( 31.97%)p 2.12( 67.93%)d 0.00(  0.09%)
                                        -0.0002 -0.5623 -0.0589  0.0042  0.0052
                                         0.6415 -0.0112 -0.0217  0.3498  0.0024
                                        -0.0100 -0.3803  0.0001  0.0099 -0.0152
                                         0.0158  0.0148 -0.0143  0.0057
               ( 48.04%)  -0.6931* C  4 s( 33.19%)p 2.01( 66.74%)d 0.00(  0.07%)
                                         0.0001 -0.5760  0.0100  0.0048  0.0060
                                        -0.6251  0.0122  0.0055 -0.3488  0.0100
                                         0.0041  0.3931 -0.0121 -0.0049 -0.0168
                                         0.0171  0.0083 -0.0092  0.0044
 172. (0.01266) BD*( 1) C  4- O  6       
               ( 66.79%)   0.8173* C  4 s( 30.57%)p 2.27( 69.28%)d 0.01(  0.16%)
                                        -0.0001  0.5450  0.0926  0.0044 -0.0035
                                         0.1664  0.0213 -0.0023 -0.6502 -0.0530
                                        -0.0027  0.4856  0.0565 -0.0008 -0.0122
                                         0.0100 -0.0312 -0.0180  0.0053
               ( 33.21%)  -0.5763* O  6 s( 41.88%)p 1.38( 57.82%)d 0.01(  0.30%)
                                         0.0001  0.6467 -0.0250 -0.0032 -0.0030
                                        -0.1560 -0.0008 -0.0023  0.3911 -0.0055
                                         0.0016 -0.6330  0.0096 -0.0015 -0.0122
                                         0.0147 -0.0434 -0.0172  0.0215
 173. (0.09272) BD*( 2) C  4- O  6       
               ( 70.34%)   0.8387* C  4 s(  0.55%)p99.99( 99.18%)d 0.50(  0.27%)
                                        -0.0001  0.0738  0.0065  0.0007  0.0001
                                         0.0505  0.0049  0.0009  0.6429 -0.0141
                                         0.0090  0.7586 -0.0051  0.0104  0.0072
                                         0.0122  0.0002  0.0230  0.0446
               ( 29.66%)  -0.5446* O  6 s(  0.88%)p99.99( 98.87%)d 0.29(  0.25%)
                                         0.0000  0.0937 -0.0020 -0.0015 -0.0006
                                         0.0059 -0.0012 -0.0010  0.8007 -0.0139
                                        -0.0027  0.5892 -0.0108 -0.0036 -0.0074
                                        -0.0050 -0.0097 -0.0283 -0.0395
 174. (0.13207) BD*( 1) C  4- C  7       
               ( 49.57%)   0.7041* C  4 s( 36.15%)p 1.76( 63.80%)d 0.00(  0.05%)
                                         0.0000 -0.6006  0.0276 -0.0008 -0.0071
                                         0.7595 -0.0070 -0.0100 -0.1842  0.0143
                                         0.0029  0.1639 -0.0038 -0.0009  0.0108
                                        -0.0079 -0.0011 -0.0157  0.0089
               ( 50.43%)  -0.7101* C  7 s( 22.13%)p 3.51( 77.78%)d 0.00(  0.09%)
                                        -0.0001 -0.4697  0.0244 -0.0055 -0.0039
                                        -0.8204  0.0187  0.0181  0.2761  0.0087
                                         0.0011 -0.1667 -0.0016  0.0010  0.0100
                                        -0.0088 -0.0001 -0.0239  0.0115
 175. (0.06698) BD*( 1) C  5- C  7       
               ( 48.29%)   0.6949* C  5 s( 27.52%)p 2.63( 72.43%)d 0.00(  0.05%)
                                        -0.0003 -0.5245  0.0069  0.0050  0.0020
                                        -0.0657  0.0150  0.0026  0.2763  0.0046
                                         0.0019 -0.8020  0.0117  0.0080  0.0022
                                        -0.0019  0.0118  0.0014 -0.0186
               ( 51.71%)  -0.7191* C  7 s( 25.63%)p 2.90( 74.31%)d 0.00(  0.07%)
                                         0.0001 -0.5061  0.0075  0.0056  0.0014
                                         0.0311  0.0095  0.0091 -0.2777  0.0168
                                         0.0049  0.8151  0.0059 -0.0092  0.0021
                                         0.0037  0.0167  0.0041 -0.0193
 176. (0.00683) BD*( 1) C  5- H 13       
               ( 38.54%)   0.6208* C  5 s( 24.33%)p 3.11( 75.58%)d 0.00(  0.09%)
                                         0.0000 -0.4932 -0.0030 -0.0039 -0.0010
                                        -0.1572 -0.0018  0.0026  0.6476  0.0006
                                        -0.0033  0.5583  0.0020  0.0072  0.0069
                                         0.0058 -0.0252  0.0126 -0.0045
               ( 61.46%)  -0.7840* H 13 s(100.00%)
                                        -1.0000 -0.0017
 177. (0.01405) BD*( 1) C  5- H 14       
               ( 39.08%)   0.6252* C  5 s( 24.59%)p 3.06( 75.31%)d 0.00(  0.10%)
                                         0.0001 -0.4959 -0.0051  0.0005 -0.0004
                                        -0.5639 -0.0090  0.0041 -0.6425 -0.0050
                                        -0.0014  0.1488  0.0060  0.0098 -0.0255
                                         0.0064  0.0076  0.0040  0.0142
               ( 60.92%)  -0.7805* H 14 s(100.00%)
                                        -1.0000 -0.0035
 178. (0.01029) BD*( 1) C  5- H 15       
               ( 39.97%)   0.6322* C  5 s( 23.53%)p 3.25( 76.38%)d 0.00(  0.09%)
                                        -0.0001  0.4850  0.0074  0.0008  0.0005
                                        -0.8073 -0.0038 -0.0009  0.3003 -0.0040
                                         0.0017 -0.1475 -0.0030 -0.0099 -0.0173
                                         0.0085 -0.0035  0.0192 -0.0137
               ( 60.03%)  -0.7748* H 15 s(100.00%)
                                         1.0000  0.0031
 179. (0.01593) BD*( 1) C  7- O  8       
               ( 61.73%)   0.7857* C  7 s( 28.48%)p 2.51( 71.40%)d 0.00(  0.12%)
                                         0.0000  0.5313  0.0498  0.0043  0.0012
                                        -0.5437 -0.0278 -0.0157 -0.6302 -0.0337
                                        -0.0215  0.1365  0.0045  0.0020  0.0290
                                        -0.0068 -0.0067 -0.0031 -0.0159
               ( 38.27%)  -0.6186* O  8 s( 32.87%)p 2.04( 66.92%)d 0.01(  0.21%)
                                         0.0001  0.5731 -0.0152  0.0064 -0.0005
                                         0.5569 -0.0247 -0.0068  0.5866 -0.0289
                                        -0.0094 -0.1153  0.0068  0.0020  0.0388
                                        -0.0079 -0.0084 -0.0034 -0.0214
 180. (0.07386) BD*( 1) C  7- C  9       
               ( 51.92%)   0.7206* C  7 s( 23.75%)p 3.21( 76.18%)d 0.00(  0.07%)
                                        -0.0001  0.4872 -0.0102 -0.0045 -0.0026
                                        -0.1634 -0.0152 -0.0039  0.6684 -0.0076
                                        -0.0110  0.5365  0.0087 -0.0074 -0.0034
                                         0.0012  0.0210 -0.0154  0.0003
               ( 48.08%)  -0.6934* C  9 s( 27.25%)p 2.67( 72.70%)d 0.00(  0.05%)
                                         0.0005  0.5219 -0.0100  0.0056 -0.0020
                                         0.1745 -0.0182 -0.0033 -0.6470  0.0053
                                         0.0019 -0.5266  0.0137  0.0078 -0.0067
                                        -0.0033  0.0176 -0.0097  0.0015
 181. (0.01290) BD*( 1) C  9- H 10       
               ( 40.02%)   0.6326* C  9 s( 23.49%)p 3.25( 76.41%)d 0.00(  0.09%)
                                        -0.0001  0.4846  0.0112 -0.0008  0.0004
                                        -0.8034 -0.0066 -0.0024  0.3046 -0.0013
                                         0.0067 -0.1603  0.0016  0.0076 -0.0175
                                         0.0086 -0.0031  0.0186 -0.0138
               ( 59.98%)  -0.7745* H 10 s(100.00%)
                                         1.0000  0.0044
 182. (0.01471) BD*( 1) C  9- H 11       
               ( 38.72%)   0.6223* C  9 s( 24.97%)p 3.00( 74.93%)d 0.00(  0.10%)
                                         0.0001 -0.4997 -0.0075  0.0012 -0.0008
                                        -0.5672 -0.0122  0.0037 -0.6445 -0.0064
                                        -0.0051  0.1095 -0.0014 -0.0067 -0.0262
                                         0.0035  0.0049  0.0040  0.0151
               ( 61.28%)  -0.7828* H 11 s(100.00%)
                                        -1.0000 -0.0042
 183. (0.00707) BD*( 1) C  9- H 12       
               ( 38.82%)   0.6231* C  9 s( 24.27%)p 3.12( 75.64%)d 0.00(  0.09%)
                                         0.0000 -0.4926 -0.0048  0.0038 -0.0008
                                        -0.0304  0.0003  0.0036  0.2678  0.0023
                                        -0.0067 -0.8269 -0.0037 -0.0036  0.0007
                                        -0.0015  0.0146  0.0018 -0.0264
               ( 61.18%)  -0.7822* H 12 s(100.00%)
                                        -1.0000 -0.0019
 SVNBO: NDIM =          183
 NBO state            0

 *******************************************************************************
Archival summary:
1\1\bt2600-16\OPT\ProcedureUnspecified\6-31+G*\456(2-,1)\emavera\SunApr2319:05:082017SunApr2319:05:082017\0\\#,OPT,ProcedureUnspecified,6-31+G*,\\-2,1\C\O,1,1.22951\C,1,1.55679,2,118.23\O,3,1.26291,1,116.249,2,-83.8036,0\O,3,1.26633,1,115.607,2,95.3389,0\C,1,1.59826,2,120.803,3,177.593,0\O,6,1.3411,1,114.476,2,31.2877,0\C,6,1.56967,1,108.079,2,156.89,0\H,8,1.09718,6,109.225,1,-68.4604,0\H,8,1.10065,6,114.11,1,53.2265,0\H,8,1.10097,6,107.29,1,174.399,0\C,6,1.58374,1,103.061,2,-90.4096,0\H,12,1.09799,6,108.181,1,66.0241,0\H,12,1.10038,6,113.762,1,-55.549,0\H,12,1.10215,6,107.21,1,-177.423,0\\\@

 Total job time:  4277.01s(wall), 4284.68s(cpu) 
 Sun Apr 23 19:05:08 2017

        *************************************************************
        *                                                           *
        *  Thank you very much for using Q-Chem.  Have a nice day.  *
        *                                                           *
        *************************************************************


0 sent ACK to 0 
now end server 0 ... 
cleanup process ... done
