
Running Job 1 of 3 ts1060.qcin
qchem ts1060.qcin_22273.0 /tmp/ts1060.qcin/ 1
/programs/x86_64/lib/qchem-4.3.2/bin/mpi/mpirun_qchem -machinefile /var/spool/torque/aux//119433.vali -np 1 /programs/x86_64/lib/qchem-4.3.2/exe/qcprog.exe ts1060.qcin_22273.0 /tmp/ts1060.qcin/

Process 0 of 1 is on bt2600-16.csail.mit.edu - thread support 0
initial socket setup ...start
initial socket setup ...done 
now start server 0 ... 

cmd = ssh thor /programs/x86_64/lib/qchem-4.3.2/bin/get_hostid 6200012 > /tmp/ts1060.qcin/lic.dat
                  Welcome to Q-Chem
     A Quantum Leap Into The Future Of Chemistry


 Q-Chem 4.3, Q-Chem, Inc., Pleasanton, CA (2015)

 Y. Shao,  Z. Gan,  E. Epifanovsky,  A. T. B. Gilbert,  M. Wormit,  
 J. Kussmann,  A. W. Lange,  A. Behn,  J. Deng,  X. Feng,  D. Ghosh,  
 M. Goldey,  P. R. Horn,  L. D. Jacobson,  I. Kaliman,  R. Z. Khaliullin,  
 T. Kus,  A. Landau,  J. Liu,  E. I. Proynov,  Y. M. Rhee,  R. M. Richard,  
 M. A. Rohrdanz,  R. P. Steele,  E. J. Sundstrom,  H. L. Woodcock III,  
 P. M. Zimmerman,  D. Zuev,  B. Albrecht,  E. Alguire,  B. Austin,  
 S. A. Baeppler,  G. J. O. Beran,  Y. A. Bernard,  E. Berquist,  
 K. Brandhorst,  K. B. Bravaya,  S. T. Brown,  D. Casanova,  C.-M. Chang,  
 Y. Chen,  S. H. Chien,  K. D. Closser,  D. L. Crittenden,  M. Diedenhofen,  
 R. A. DiStasio Jr.,  H. Do,  A. D. Dutoi,  R. G. Edgar,  P.-T. Fang,  
 S. Fatehi,  Q. Feng,  L. Fusti-Molnar,  A. Ghysels,  
 A. Golubeva-Zadorozhnaya,  J. Gomes,  A. Gunina,  M. W. D. Hanson-Heine,  
 P. H. P. Harbach,  A. W. Hauser,  E. G. Hohenstein,  Z. C. Holden,  K. Hui,  
 T.-C. Jagau,  H. Ji,  B. Kaduk,  K. Khistyaev,  Jaehoon Kim,  Jihan Kim,  
 R. A. King,  P. Klunzinger,  D. Kosenkov,  T. Kowalczyk,  C. M. Krauter,  
 K. U. Lao,  A. Laurent,  K. V. Lawler,  S. Lehtola,  S. V. Levchenko,  
 C. Y. Lin,  Y.-S. Lin,  F. Liu,  E. Livshits,  R. C. Lochan,  A. Luenser,  
 P. Manohar,  S. F. Manzer,  S.-P. Mao,  N. Mardirossian,  A. V. Marenich,  
 L. A. Martinez-Martinez,  S. A. Maurer,  N. J. Mayhall,  K. Nanda,  
 C. M. Oana,  R. Olivares-Amaya,  D. P. O'Neill,  J. A. Parkhill,  
 T. M. Perrine,  R. Peverati,  P. A. Pieniazek,  F. Plasser,  A. Prociuk,  
 D. R. Rehn,  E. Rosta,  N. J. Russ,  N. Sergueev,  S. M. Sharada,  
 S. Sharma,  D. W. Small,  A. Sodt,  T. Stauch,  T. Stein,  D. Stuck,  
 Y.-C. Su,  A. J. W. Thom,  T. Tsuchimochi,  L. Vogt,  O. Vydrov,  T. Wang,  
 M. A. Watson,  J. Wenzel,  A. White,  C. F. Williams,  V. Vanovschi,  
 S. Yeganeh,  S. R. Yost,  Z.-Q. You,  I. Y. Zhang,  X. Zhang,  Y. Zhao,  
 B. R. Brooks,  G. K. L. Chan,  D. M. Chipman,  C. J. Cramer,  
 W. A. Goddard III,  M. S. Gordon,  W. J. Hehre,  A. Klamt,  
 H. F. Schaefer III,  M. W. Schmidt,  C. D. Sherrill,  D. G. Truhlar,  
 A. Warshel,  X. Xu,  A. Aspuru-Guzik,  R. Baer,  A. T. Bell,  N. A. Besley,  
 J.-D. Chai,  A. Dreuw,  B. D. Dunietz,  T. R. Furlani,  S. R. Gwaltney,  
 C.-P. Hsu,  Y. Jung,  J. Kong,  D. S. Lambrecht,  W. Liang,  C. Ochsenfeld,  
 V. A. Rassolov,  L. V. Slipchenko,  J. E. Subotnik,  T. Van Voorhis,  
 J. M. Herbert,  A. I. Krylov,  P. M. W. Gill,  M. Head-Gordon

 Contributors to earlier versions of Q-Chem not listed above: 
 R. D. Adamson,  J. Baker,  E. F. C. Byrd,  A. K. Chakraborty,  C.-L. Cheng,  
 H. Dachsel,  R. J. Doerksen,  G. Hawkins,  A. Heyden,  S. Hirata,  
 G. Kedziora,  F. J. Keil,  C. Kelley,  P. P. Korambath,  W. Kurlancheek,  
 A. M. Lee,  M. S. Lee,  D. Liotard,  I. Lotan,  P. E. Maslen,  N. Nair,  
 D. Neuhauser,  R. Olson,  B. Peters,  J. Ritchie,  N. E. Schultz,  
 N. Shenvi,  A. C. Simmonett,  K. S. Thanthiriwatte,  Q. Wu,  W. Zhang

 Please cite Q-Chem as follows:
 Y. Shao et al., Mol. Phys. 113, 184-215 (2015)
 DOI: 10.1080/00268976.2014.952696

 Q-Chem 4.3.0 for Intel X86 Linux

 Parts of Q-Chem use Armadillo 5.200.1 (Boston Tea Smuggler).
 http://arma.sourceforge.net/

 Q-Chem begins on Mon Jun  5 14:43:52 2017  

Host: 
0

     Scratch files written to /tmp/ts1060.qcin//
 Oct1215 13750_ 19228  19214 4150   
 Parallel job on  1  processors
Processing $rem in /programs/x86_64/lib/qchem-4.3.2/config/preferences.
 MEM_TOTAL  2000 

Checking the input file for inconsistencies... 	...done.

--------------------------------------------------------------
User input:
--------------------------------------------------------------
$comment
Title
$end

$molecule
-2 1
C         3.481        -1.226          2.648
O         4.604        -1.388          2.116
O         3.308        -1.488          3.891
C         2.335        -0.605          1.799
C         1.973        -2.138          0.357
O         1.206        -0.364          2.418
C         2.455        -0.141          0.436
O         1.453         0.415         -0.184
C         3.843         0.018         -0.124
H         3.767        -0.064         -1.181
H         4.413        -0.892          0.246
H         4.306         0.951          0.292
H         1.118        -1.862         -0.391
H         1.592        -2.750          1.216
H         2.921        -2.490         -0.096
$end

$solvent
CavityRadius    30
Dielectric     78.39
$end

$molecule
READ
$end

$rem
jobtype          FREQ
exchange         b3lyp
basis            6-31+G(d)
pdb_print 2
SOLVENT_METHOD ONSAGER
NBO TRUE
$end

--------------------------------------------------------------
 ----------------------------------------------------------------
             Standard Nuclear Orientation (Angstroms)
    I     Atom           X                Y                Z
 ----------------------------------------------------------------
    1      C       1.4755467284     0.1870406271     0.0592923968
    2      O       1.4834054671     1.4301341339    -0.0989914421
    3      O       2.5770610174    -0.4614757176     0.1578561917
    4      C       0.1090216740    -0.5345134797     0.2374129926
    5      C      -0.7770321817    -0.2843839780    -1.6894603290
    6      O       0.1486920143    -1.8181596327     0.4954087642
    7      C      -1.1825212853     0.1111962921     0.2868161792
    8      O      -2.2753115744    -0.5681823027     0.4912522546
    9      C      -1.2055493734     1.6061955821     0.4596508695
   10      H      -2.1254196461     1.9551805052     0.0574106368
   11      H      -0.3746744087     1.9905305128    -0.2125347106
   12      H      -0.9772548356     1.8594513281     1.5281344356
   13      H      -1.8348598711    -0.7759033946    -1.7676539509
   14      H       0.0280275033    -0.9692468244    -2.0641972836
   15      H      -0.7033875083     0.7682457638    -2.0276379283
 ----------------------------------------------------------------
 Molecular Point Group                 C1    NOp =  1
 Largest Abelian Subgroup              C1    NOp =  1
 Nuclear Repulsion Energy =   450.7985245497 hartrees
 There are       35 alpha and       35 beta electrons
 Requested basis set is 6-31+G(d)
 There are 57 shells and 183 basis functions

 Total QAlloc Memory Limit   2000 MB
 Mega-Array Size        61 MB
 MEM_STATIC part        62 MB

                       Distance Matrix (Angstroms)
             C (  1)   O (  2)   O (  3)   C (  4)   C (  5)   O (  6)
   O (  2)  1.253155
   O (  3)  1.282038  2.200055
   C (  4)  1.555557  2.421144  2.470401
   C (  5)  2.890413  3.252498  3.833260  2.135532
   O (  6)  2.443679  3.561767  2.802054  1.309917  2.825436
   C (  7)  2.668866  2.999268  3.805134  1.444806  2.055863  2.353307
   O (  8)  3.850440  4.297628  4.864983  2.398044  2.660994  2.727316
   C (  9)  3.059831  2.752010  4.321399  2.521928  2.894235  3.682588
   H ( 10)  4.011643  3.650172  5.288066  3.350180  3.144099  4.427361
   H ( 11)  2.598035  1.944067  3.855161  2.610031  2.741977  3.909120
   H ( 12)  3.312203  2.981057  4.460664  2.928656  3.871568  3.982349
   H ( 13)  3.901767  4.319945  4.824054  2.803077  1.169062  3.184687
   H ( 14)  2.818070  3.425958  3.419492  2.343707  1.121421  2.699407
   H ( 15)  3.072594  2.989956  4.129158  2.736356  1.108069  3.712317
             C (  7)   O (  8)   C (  9)   H ( 10)   H ( 11)   H ( 12)
   O (  8)  1.302897
   C (  9)  1.505133  2.423491
   H ( 10)  2.083738  2.564770  1.062897
   H ( 11)  2.105674  3.264161  1.135738  1.771787
   H ( 12)  2.153927  2.941680  1.121568  1.868281  1.846676
   H ( 13)  2.330952  2.310801  3.321342  3.297591  3.493379  4.306135
   H ( 14)  2.856580  3.463603  3.811092  4.206047  3.514414  4.681557
   H ( 15)  2.453157  3.256039  2.672252  2.788981  2.212833  3.729511
             H ( 13)   H ( 14)
   H ( 14)  1.896225
   H ( 15)  1.931895  1.885520
 
 A cutoff of  1.0D-11 yielded   1556 shell pairs
 There are     16618 function pairs
 
 -------------------------------------------------------
 OpenMP Integral Computing Module                       
 Release: version 1.0, May 2013, Q-Chem Inc. Pittsburgh 
 -------------------------------------------------------
 Integral Job Info:
 Integral job number is                      11
 Integral operator is                         1
 short-range coefficients                     0
 long-range coefficients              100000000
 Omega coefficients                           0
 if combine SR and LR in K                    0
 Integral screening is                        0
 Integral computing path is                   2
 max size of driver memory is            800000
 size of driver memory is                593474
 size of scratch memory is              2260544
 max col of scratch BK array               1296
 max len of scratch array in speh3          155
 max len of scratch index in speh4           18
 max int batch size is                      520
 min int batch size is                       52
 fixed nKL is                                52
 max L of basis functions is                  2
 order of int derivative is                   0
 number of shells is                         57
 number of basis is                         183
 number of cartesian basis is               183
 number of contracted shell pairs          1556
 number of primitive shell pairs           5397
 maxK2 (contraction) of shell pair           36
 max number of K2 of shell pair               1
 max number of CS2 of shell pair            198
 max number of PS2 of shell pair           1188
 mem total for path MDJ                   45544
 -------------------------------------------------------
 Smallest overlap matrix eigenvalue = 1.47E-05
 Placing solute cavity origin at the center of mass
 Center of Onsager solute cavity (Angst): (   0.045613,  -0.036787,   0.034193)
 Solvent multipole matrices computed through 15th order
 Guess from superposition of atomic densities
 Warning:  Energy on first SCF cycle will be non-variational
 A restricted hybrid HF-DFT SCF calculation will be
 performed using Pulay DIIS extrapolation
 Kirkwood-Onsager solvation model will be applied
 Exchange:     0.2000 Hartree-Fock + 0.0800 Slater + 0.7200 B88
 Correlation:  0.1900 VWN1RPA + 0.8100 LYP
 Using SG-1 standard quadrature grid
 SCF converges when DIIS error is below 1.0E-08
 Kirkwood-Onsager SCRF: 
 Maximum multipole order     = 15
 Solvent dielectric constant = 78.3900
 Cavity radius               = 56.6917 bohr
 Born term (E_born)          = -0.03482849 a.u. = -21.8552 kcal/mol
 CPU 0.00 s  wall 0.00 s
 Inaccurate integrated density:
   Number of electrons =    70
   Numerical integral  =    68.000192166190
   Relative error      =    -2.8568683340 %
 CPU 4.87 s  wall 4.87 s
 ---------------------------------------
  Cycle       Energy         DIIS Error
 ---------------------------------------
    1    -496.0944080641      4.76E-02
 CPU 0.00 s  wall 0.00 s
 CPU 5.41 s  wall 5.41 s
    2    -494.5531909753      1.07E-02
 CPU 0.00 s  wall 0.00 s
 CPU 5.39 s  wall 5.39 s
    3    -490.1828795414      3.03E-02
 CPU 0.00 s  wall 0.00 s
 CPU 5.38 s  wall 5.38 s
    4    -494.7392017429      7.53E-03
 CPU 0.00 s  wall 0.00 s
 CPU 5.37 s  wall 5.37 s
    5    -494.9690967575      1.77E-03
 CPU 0.00 s  wall 0.00 s
 CPU 5.32 s  wall 5.32 s
    6    -494.9761085652      1.35E-03
 CPU 0.00 s  wall 0.00 s
 CPU 5.29 s  wall 5.29 s
    7    -494.9817913787      5.40E-04
 CPU 0.00 s  wall 0.00 s
 CPU 5.28 s  wall 5.28 s
    8    -494.9825916248      2.36E-04
 CPU 0.00 s  wall 0.00 s
 CPU 5.21 s  wall 5.21 s
    9    -494.9827892951      4.74E-05
 CPU 0.00 s  wall 0.00 s
 CPU 5.17 s  wall 5.17 s
   10    -494.9827962839      2.70E-05
 CPU 0.00 s  wall 0.00 s
 CPU 5.12 s  wall 5.12 s
   11    -494.9827987569      7.50E-06
 CPU 0.00 s  wall 0.00 s
 CPU 5.03 s  wall 5.02 s
   12    -494.9827989019      4.26E-06
 CPU 0.00 s  wall 0.00 s
 CPU 4.96 s  wall 4.96 s
   13    -494.9827989660      8.97E-07
 CPU 0.00 s  wall 0.00 s
 CPU 4.86 s  wall 4.86 s
   14    -494.9827989688      2.99E-07
 CPU 0.00 s  wall 0.00 s
 CPU 4.78 s  wall 4.78 s
   15    -494.9827989701      8.22E-08
 CPU 0.00 s  wall 0.00 s
 CPU 4.64 s  wall 4.64 s
   16    -494.9827989694      3.33E-08
 CPU 0.00 s  wall 0.00 s
 CPU 4.49 s  wall 4.49 s
   17    -494.9827989688      6.40E-09 Convergence criterion met
 ---------------------------------------
 SCF time:  CPU 206.41 s  wall 205.67 s
 SCF   energy in the final basis set = -494.9827989688
 Total energy in the final basis set = -494.9827989688
 
 --------------------------------------------------------------
 
                    Orbital Energies (a.u.)
 --------------------------------------------------------------
 
 Alpha MOs
 -- Occupied --
-18.789 -18.788 -18.785 -18.781  -9.966  -9.957  -9.946  -9.910
 -9.895  -0.717  -0.676  -0.638  -0.612  -0.462  -0.394  -0.343
 -0.256  -0.171  -0.159  -0.148  -0.126  -0.115  -0.112  -0.094
 -0.088  -0.075  -0.060  -0.047   0.021   0.043   0.062   0.067
  0.086   0.100   0.106
 -- Virtual --
  0.233   0.238   0.267   0.274   0.283   0.287   0.297   0.302
  0.308   0.315   0.333   0.335   0.341   0.342   0.349   0.364
  0.368   0.388   0.405   0.408   0.414   0.448   0.466   0.473
  0.493   0.495   0.511   0.529   0.536   0.543   0.557   0.562
  0.567   0.569   0.582   0.586   0.592   0.598   0.609   0.617
  0.625   0.635   0.647   0.663   0.665   0.678   0.700   0.718
  0.741   0.787   0.836   0.888   0.932   0.950   0.979   0.987
  1.019   1.054   1.062   1.085   1.124   1.151   1.199   1.207
  1.236   1.249   1.262   1.271   1.308   1.337   1.369   1.406
  1.428   1.440   1.474   1.514   1.543   1.564   1.573   1.597
  1.623   1.657   1.663   1.667   1.672   1.681   1.687   1.696
  1.717   1.758   1.778   1.799   1.817   1.883   1.922   1.980
  2.013   2.023   2.062   2.072   2.091   2.124   2.165   2.173
  2.187   2.201   2.220   2.264   2.274   2.323   2.325   2.357
  2.385   2.407   2.458   2.471   2.492   2.532   2.554   2.565
  2.591   2.617   2.682   2.682   2.741   2.788   2.849   2.870
  2.895   2.987   3.028   3.060   3.186   3.336   3.359   3.443
  3.479   3.545   3.596   4.459   4.504   4.584   4.627   4.729
  4.827   4.912   4.977   5.263
 --------------------------------------------------------------
 
          Ground-State Mulliken Net Atomic Charges

     Atom                 Charge (a.u.)
  ----------------------------------------
      1 C                     0.469106
      2 O                    -0.605391
      3 O                    -0.627199
      4 C                     0.004654
      5 C                    -0.814940
      6 O                    -0.551792
      7 C                     0.232170
      8 O                    -0.577585
      9 C                    -0.705519
     10 H                     0.166963
     11 H                     0.254698
     12 H                     0.164599
     13 H                     0.201641
     14 H                     0.207089
     15 H                     0.181506
  ----------------------------------------
  Sum of atomic charges =    -2.000000

 -----------------------------------------------------------------
                    Cartesian Multipole Moments
 -----------------------------------------------------------------
    Charge (ESU x 10^10)
                -9.6064
    Dipole Moment (Debye)
         X      -2.3151      Y       3.2129      Z      -0.3019
       Tot       3.9716
    Quadrupole Moments (Debye-Ang)
        XX    -106.9010     XY      -4.9022     YY     -82.2476
        XZ       1.0538     YZ       3.7862     ZZ     -68.7964
    Octopole Moments (Debye-Ang^2)
       XXX       1.3773    XXY       2.0322    XYY      -2.7546
       YYY      -7.4294    XXZ      -4.0105    XYZ       1.6626
       YYZ      -1.4704    XZZ      18.1151    YZZ       0.4268
       ZZZ      42.9253
    Hexadecapole Moments (Debye-Ang^3)
      XXXX   -1205.3257   XXXY      -2.7443   XXYY    -273.5946
      XYYY       1.1829   YYYY    -570.6491   XXXZ       9.0254
      XXYZ       4.2971   XYYZ       1.5850   YYYZ       1.5691
      XXZZ    -225.8382   XYZZ      -0.5293   YYZZ    -142.1023
      XZZZ     -38.9154   YZZZ      -8.3597   ZZZZ    -414.2058
 -----------------------------------------------------------------

 Begin NBO analysis for the ground state 


 *********************************** NBO 5.0 ***********************************
             N A T U R A L   A T O M I C   O R B I T A L   A N D
          N A T U R A L   B O N D   O R B I T A L   A N A L Y S I S
 *******************************************************************************
  (c) Copyright 1996-2002 Board of Regents of the University of Wisconsin System
      on behalf of the Theoretical Chemistry Institute.  All Rights Reserved.

          Cite this program as:

          NBO 5.0.  E. D. Glendening, J. K. Badenhoop, A. E. Reed,
          J. E. Carpenter, J. A. Bohmann, C. M. Morales, and F. Weinhold
          (Theoretical Chemistry Institute, University of Wisconsin,
          Madison, WI, 2001); http://www.chem.wisc.edu/~nbo5

       /PRINT  / : Print level set to  1
  This is a closed-shell NBO calculation

 Job title: Starting NBO analysis.                                          

 Storage needed:      168297 in NPA,      134749 in NBO (     7716754 available)


 NATURAL POPULATIONS:  Natural atomic orbital occupancies 
                                                          
  NAO Atom No lang   Type(AO)    Occupancy      Energy    
 ---------------------------------------------------------
   1    C  1  s      Cor( 1s)     1.99940      -9.84811
   2    C  1  s      Val( 2s)     0.80008       0.18496
   3    C  1  s      Ryd( 3s)     0.01326       1.14612
   4    C  1  s      Ryd( 4s)     0.00250       1.67145
   5    C  1  s      Ryd( 5s)     0.00024       3.39037
   6    C  1  px     Val( 2p)     0.87305       0.31188
   7    C  1  px     Ryd( 4p)     0.01257       1.13959
   8    C  1  px     Ryd( 3p)     0.00139       0.78392
   9    C  1  py     Val( 2p)     0.76695       0.33342
  10    C  1  py     Ryd( 4p)     0.01884       1.14862
  11    C  1  py     Ryd( 3p)     0.00088       0.61133
  12    C  1  pz     Val( 2p)     0.78481       0.22416
  13    C  1  pz     Ryd( 4p)     0.00237       0.98174
  14    C  1  pz     Ryd( 3p)     0.00045       0.48486
  15    C  1  dxy    Ryd( 3d)     0.00393       2.88185
  16    C  1  dxz    Ryd( 3d)     0.00134       2.34433
  17    C  1  dyz    Ryd( 3d)     0.00254       2.47367
  18    C  1  dx2y2  Ryd( 3d)     0.00397       2.87650
  19    C  1  dz2    Ryd( 3d)     0.00046       2.65695
 
  20    O  2  s      Cor( 1s)     1.99978     -18.53850
  21    O  2  s      Val( 2s)     1.72016      -0.55587
  22    O  2  s      Ryd( 3s)     0.00306       0.87468
  23    O  2  s      Ryd( 4s)     0.00039       2.43724
  24    O  2  s      Ryd( 5s)     0.00013       4.15985
  25    O  2  px     Val( 2p)     1.88382       0.07687
  26    O  2  px     Ryd( 3p)     0.00483       0.96392
  27    O  2  px     Ryd( 4p)     0.00022       1.46715
  28    O  2  py     Val( 2p)     1.57654       0.03943
  29    O  2  py     Ryd( 3p)     0.00124       0.97200
  30    O  2  py     Ryd( 4p)     0.00032       1.69918
  31    O  2  pz     Val( 2p)     1.60519       0.07649
  32    O  2  pz     Ryd( 3p)     0.00228       0.76609
  33    O  2  pz     Ryd( 4p)     0.00008       1.37448
  34    O  2  dxy    Ryd( 3d)     0.00277       2.48903
  35    O  2  dxz    Ryd( 3d)     0.00012       2.17869
  36    O  2  dyz    Ryd( 3d)     0.00300       2.37296
  37    O  2  dx2y2  Ryd( 3d)     0.00335       2.72553
  38    O  2  dz2    Ryd( 3d)     0.00105       2.39889
 
  39    O  3  s      Cor( 1s)     1.99981     -18.54117
  40    O  3  s      Val( 2s)     1.73821      -0.54455
  41    O  3  s      Ryd( 3s)     0.00171       1.08144
  42    O  3  s      Ryd( 4s)     0.00025       2.27656
  43    O  3  s      Ryd( 5s)     0.00006       4.15701
  44    O  3  px     Val( 2p)     1.61598       0.07049
  45    O  3  px     Ryd( 3p)     0.00160       0.95266
  46    O  3  px     Ryd( 4p)     0.00013       1.58918
  47    O  3  py     Val( 2p)     1.82026       0.08583
  48    O  3  py     Ryd( 3p)     0.00304       0.82318
  49    O  3  py     Ryd( 4p)     0.00012       1.54270
  50    O  3  pz     Val( 2p)     1.60318       0.09400
  51    O  3  pz     Ryd( 3p)     0.00208       0.74737
  52    O  3  pz     Ryd( 4p)     0.00002       1.41564
  53    O  3  dxy    Ryd( 3d)     0.00281       2.68372
  54    O  3  dxz    Ryd( 3d)     0.00213       2.31967
  55    O  3  dyz    Ryd( 3d)     0.00067       2.24013
  56    O  3  dx2y2  Ryd( 3d)     0.00276       2.56475
  57    O  3  dz2    Ryd( 3d)     0.00083       2.39626
 
  58    C  4  s      Cor( 1s)     1.99873      -9.81874
  59    C  4  s      Val( 2s)     0.93855       0.10603
  60    C  4  s      Ryd( 4s)     0.00877       1.80120
  61    C  4  s      Ryd( 5s)     0.00074       3.03414
  62    C  4  s      Ryd( 3s)     0.00016       0.98148
  63    C  4  px     Val( 2p)     1.06851       0.24302
  64    C  4  px     Ryd( 4p)     0.00497       1.30134
  65    C  4  px     Ryd( 3p)     0.00063       0.75089
  66    C  4  py     Val( 2p)     0.85099       0.27356
  67    C  4  py     Ryd( 4p)     0.01704       1.25130
  68    C  4  py     Ryd( 3p)     0.00063       0.68506
  69    C  4  pz     Val( 2p)     0.81604       0.20618
  70    C  4  pz     Ryd( 4p)     0.00276       1.05100
  71    C  4  pz     Ryd( 3p)     0.00113       0.59193
  72    C  4  dxy    Ryd( 3d)     0.00338       2.70751
  73    C  4  dxz    Ryd( 3d)     0.00083       2.23777
  74    C  4  dyz    Ryd( 3d)     0.00181       2.37879
  75    C  4  dx2y2  Ryd( 3d)     0.00145       2.79402
  76    C  4  dz2    Ryd( 3d)     0.00100       2.58979
 
  77    C  5  s      Cor( 1s)     1.99953      -9.80647
  78    C  5  s      Val( 2s)     1.25888      -0.05490
  79    C  5  s      Ryd( 3s)     0.01543       0.76262
  80    C  5  s      Ryd( 4s)     0.00064       1.51633
  81    C  5  s      Ryd( 5s)     0.00002       4.09934
  82    C  5  px     Val( 2p)     1.22394       0.18928
  83    C  5  px     Ryd( 3p)     0.00356       0.60439
  84    C  5  px     Ryd( 4p)     0.00034       0.83726
  85    C  5  py     Val( 2p)     1.21463       0.20501
  86    C  5  py     Ryd( 3p)     0.00411       0.57643
  87    C  5  py     Ryd( 4p)     0.00040       0.83609
  88    C  5  pz     Val( 2p)     1.08699       0.17197
  89    C  5  pz     Ryd( 3p)     0.01626       0.64202
  90    C  5  pz     Ryd( 4p)     0.00081       0.86313
  91    C  5  dxy    Ryd( 3d)     0.00112       2.38021
  92    C  5  dxz    Ryd( 3d)     0.00055       2.27969
  93    C  5  dyz    Ryd( 3d)     0.00078       2.20327
  94    C  5  dx2y2  Ryd( 3d)     0.00111       2.36769
  95    C  5  dz2    Ryd( 3d)     0.00071       2.35052
 
  96    O  6  s      Cor( 1s)     1.99982     -18.53952
  97    O  6  s      Val( 2s)     1.72938      -0.54659
  98    O  6  s      Ryd( 3s)     0.00141       1.40239
  99    O  6  s      Ryd( 4s)     0.00018       2.27568
 100    O  6  s      Ryd( 5s)     0.00005       4.05749
 101    O  6  px     Val( 2p)     1.90121       0.09433
 102    O  6  px     Ryd( 3p)     0.00337       0.99104
 103    O  6  px     Ryd( 4p)     0.00015       1.43443
 104    O  6  py     Val( 2p)     1.52474       0.06776
 105    O  6  py     Ryd( 3p)     0.00071       1.15823
 106    O  6  py     Ryd( 4p)     0.00018       1.39865
 107    O  6  pz     Val( 2p)     1.55948       0.09637
 108    O  6  pz     Ryd( 3p)     0.00247       0.93161
 109    O  6  pz     Ryd( 4p)     0.00013       1.32448
 110    O  6  dxy    Ryd( 3d)     0.00210       2.51655
 111    O  6  dxz    Ryd( 3d)     0.00012       2.20389
 112    O  6  dyz    Ryd( 3d)     0.00236       2.42693
 113    O  6  dx2y2  Ryd( 3d)     0.00242       2.72684
 114    O  6  dz2    Ryd( 3d)     0.00089       2.40280
 
 115    C  7  s      Cor( 1s)     1.99894      -9.82428
 116    C  7  s      Val( 2s)     0.87016       0.12164
 117    C  7  s      Ryd( 3s)     0.00579       1.54363
 118    C  7  s      Ryd( 4s)     0.00147       1.59267
 119    C  7  s      Ryd( 5s)     0.00009       4.42987
 120    C  7  px     Val( 2p)     0.92945       0.25785
 121    C  7  px     Ryd( 4p)     0.01367       1.02206
 122    C  7  px     Ryd( 3p)     0.00191       0.70922
 123    C  7  py     Val( 2p)     0.98006       0.24016
 124    C  7  py     Ryd( 4p)     0.01033       1.23004
 125    C  7  py     Ryd( 3p)     0.00111       0.67400
 126    C  7  pz     Val( 2p)     0.81576       0.20272
 127    C  7  pz     Ryd( 4p)     0.00424       1.01786
 128    C  7  pz     Ryd( 3p)     0.00168       0.56262
 129    C  7  dxy    Ryd( 3d)     0.00176       2.72563
 130    C  7  dxz    Ryd( 3d)     0.00196       2.34073
 131    C  7  dyz    Ryd( 3d)     0.00070       2.28936
 132    C  7  dx2y2  Ryd( 3d)     0.00306       2.76846
 133    C  7  dz2    Ryd( 3d)     0.00116       2.59169
 
 134    O  8  s      Cor( 1s)     1.99981     -18.53515
 135    O  8  s      Val( 2s)     1.72079      -0.55532
 136    O  8  s      Ryd( 3s)     0.00074       1.48240
 137    O  8  s      Ryd( 4s)     0.00024       2.48172
 138    O  8  s      Ryd( 5s)     0.00006       3.60192
 139    O  8  px     Val( 2p)     1.62010       0.06238
 140    O  8  px     Ryd( 3p)     0.00202       0.94459
 141    O  8  px     Ryd( 4p)     0.00021       1.55088
 142    O  8  py     Val( 2p)     1.80368       0.07532
 143    O  8  py     Ryd( 3p)     0.00303       0.88920
 144    O  8  py     Ryd( 4p)     0.00025       1.46759
 145    O  8  pz     Val( 2p)     1.64105       0.08453
 146    O  8  pz     Ryd( 3p)     0.00298       0.83972
 147    O  8  pz     Ryd( 4p)     0.00020       1.39642
 148    O  8  dxy    Ryd( 3d)     0.00233       2.66947
 149    O  8  dxz    Ryd( 3d)     0.00165       2.35284
 150    O  8  dyz    Ryd( 3d)     0.00089       2.24827
 151    O  8  dx2y2  Ryd( 3d)     0.00229       2.54091
 152    O  8  dz2    Ryd( 3d)     0.00083       2.39042
 
 153    C  9  s      Cor( 1s)     1.99927      -9.75590
 154    C  9  s      Val( 2s)     1.11144       0.02090
 155    C  9  s      Ryd( 3s)     0.00149       1.15198
 156    C  9  s      Ryd( 4s)     0.00054       1.92467
 157    C  9  s      Ryd( 5s)     0.00002       3.57348
 158    C  9  px     Val( 2p)     1.25521       0.19867
 159    C  9  px     Ryd( 4p)     0.00349       0.73389
 160    C  9  px     Ryd( 3p)     0.00057       0.69949
 161    C  9  py     Val( 2p)     1.11990       0.19193
 162    C  9  py     Ryd( 3p)     0.00155       0.59679
 163    C  9  py     Ryd( 4p)     0.00087       0.69302
 164    C  9  pz     Val( 2p)     1.24284       0.18905
 165    C  9  pz     Ryd( 4p)     0.00218       0.74052
 166    C  9  pz     Ryd( 3p)     0.00066       0.69920
 167    C  9  dxy    Ryd( 3d)     0.00060       2.33623
 168    C  9  dxz    Ryd( 3d)     0.00125       2.38144
 169    C  9  dyz    Ryd( 3d)     0.00049       2.20132
 170    C  9  dx2y2  Ryd( 3d)     0.00115       2.48387
 171    C  9  dz2    Ryd( 3d)     0.00119       2.39890
 
 172    H 10  s      Val( 1s)     0.79553       0.36276
 173    H 10  s      Ryd( 2s)     0.00335       1.01182
 
 174    H 11  s      Val( 1s)     0.71991       0.36322
 175    H 11  s      Ryd( 2s)     0.00132       1.19275
 
 176    H 12  s      Val( 1s)     0.77723       0.31731
 177    H 12  s      Ryd( 2s)     0.00082       1.04919
 
 178    H 13  s      Val( 1s)     0.76724       0.31631
 179    H 13  s      Ryd( 2s)     0.00213       1.09809
 
 180    H 14  s      Val( 1s)     0.76706       0.35051
 181    H 14  s      Ryd( 2s)     0.00190       1.05928
 
 182    H 15  s      Val( 1s)     0.79851       0.34093
 183    H 15  s      Ryd( 2s)     0.00178       1.06848
 
   1 low occupancy (<1.9990e) core orbital  found on  C  4
   1 low occupancy (<1.9990e) core orbital  found on  C  7
 
     Population inversion found on atom  C  1
     Population inversion found on atom  C  4
     Population inversion found on atom  C  7
     Population inversion found on atom  C  9


 Summary of Natural Population Analysis:

                                     Natural Population
             Natural    ---------------------------------------------
  Atom No    Charge        Core      Valence    Rydberg      Total
 --------------------------------------------------------------------
    C  1    0.71099      1.99940     3.22488    0.06473     5.28901
    O  2   -0.80833      1.99978     6.78571    0.02283     8.80833
    O  3   -0.79564      1.99981     6.77763    0.01820     8.79564
    C  4    0.28190      1.99873     3.67409    0.04529     5.71810
    C  5   -0.82981      1.99953     4.78444    0.04584     6.82981
    O  6   -0.73117      1.99982     6.71482    0.01654     8.73117
    C  7    0.35671      1.99894     3.59542    0.04893     5.64329
    O  8   -0.80315      1.99981     6.78563    0.01771     8.80315
    C  9   -0.74471      1.99927     4.72940    0.01605     6.74471
    H 10    0.20112      0.00000     0.79553    0.00335     0.79888
    H 11    0.27878      0.00000     0.71991    0.00132     0.72122
    H 12    0.22195      0.00000     0.77723    0.00082     0.77805
    H 13    0.23063      0.00000     0.76724    0.00213     0.76937
    H 14    0.23104      0.00000     0.76706    0.00190     0.76896
    H 15    0.19971      0.00000     0.79851    0.00178     0.80029
 ====================================================================
 * Total * -2.00000     17.99509    51.69750    0.30741    70.00000

                                 Natural Population      
 --------------------------------------------------------
   Core                      17.99509 ( 99.9727% of  18)
   Valence                   51.69750 ( 99.4183% of  52)
   Natural Minimal Basis     69.69259 ( 99.5608% of  70)
   Natural Rydberg Basis      0.30741 (  0.4392% of  70)
 --------------------------------------------------------

    Atom No         Natural Electron Configuration
 ----------------------------------------------------------------------------
      C  1      [core]2s( 0.80)2p( 2.42)3s( 0.01)3d( 0.01)4p( 0.03)
      O  2      [core]2s( 1.72)2p( 5.07)3p( 0.01)3d( 0.01)
      O  3      [core]2s( 1.74)2p( 5.04)3p( 0.01)3d( 0.01)
      C  4      [core]2s( 0.94)2p( 2.74)4s( 0.01)3d( 0.01)4p( 0.02)
      C  5      [core]2s( 1.26)2p( 3.53)3s( 0.02)3p( 0.02)
      O  6      [core]2s( 1.73)2p( 4.99)3p( 0.01)3d( 0.01)
      C  7      [core]2s( 0.87)2p( 2.73)3s( 0.01)3d( 0.01)4p( 0.03)
      O  8      [core]2s( 1.72)2p( 5.06)3p( 0.01)3d( 0.01)
      C  9      [core]2s( 1.11)2p( 3.62)4p( 0.01)
      H 10            1s( 0.80)
      H 11            1s( 0.72)
      H 12            1s( 0.78)
      H 13            1s( 0.77)
      H 14            1s( 0.77)
      H 15            1s( 0.80)


 NATURAL BOND ORBITAL ANALYSIS:

                       Occupancies       Lewis Structure    Low   High
           Occ.    -------------------  -----------------   occ   occ
  Cycle   Thresh.   Lewis   Non-Lewis     CR  BD  3C  LP    (L)   (NL)   Dev
 =============================================================================
   1(1)    1.90    67.74535   2.25465      9  17   0   9     5      5    0.44
   2(2)    1.90    67.73345   2.26655      9  17   0   9     5      5    0.47
   3(3)    1.90    67.54775   2.45225      9  18   0   8     5      5    0.41
   4(4)    1.90    67.54775   2.45225      9  18   0   8     5      5    0.41
   5(5)    1.90    65.76000   4.24000      9  19   0   7     6      6    0.47
   6(6)    1.90    67.54775   2.45225      9  18   0   8     5      5    0.41
   7(7)    1.90    67.54775   2.45225      9  18   0   8     5      5    0.41
   8(8)    1.90    65.76000   4.24000      9  19   0   7     6      6    0.47
   9(9)    1.90    67.54775   2.45225      9  18   0   8     5      5    0.41
  10(1)    1.80    68.03394   1.96606      9  16   0  10     2      4    0.44
  11(2)    1.80    68.02094   1.97906      9  16   0  10     2      4    0.47
  12(3)    1.80    68.03394   1.96606      9  16   0  10     2      4    0.44
  13(1)    1.70    68.03394   1.96606      9  16   0  10     2      4    0.44
  14(2)    1.70    68.02094   1.97906      9  16   0  10     2      4    0.47
  15(3)    1.70    68.03394   1.96606      9  16   0  10     2      4    0.44
  16(1)    1.60    67.80489   2.19511      9  15   0  11     0      4    0.47
  17(2)    1.60    67.80489   2.19511      9  15   0  11     0      4    0.47
  18(1)    1.50    67.29639   2.70361      9  14   0  12     0      4    0.49
  19(2)    1.50    67.29639   2.70361      9  14   0  12     0      4    0.49
  20(1)    1.80    68.03394   1.96606      9  16   0  10     2      4    0.44
 -----------------------------------------------------------------------------

 Strongly delocalized structure accepted

           1 low occupancy (<1.9990e) core orbital  found on  C 4
           1 low occupancy (<1.9990e) core orbital  found on  C 7

 --------------------------------------------------------
   Core                     17.99509 ( 99.973% of  18)
   Valence Lewis            50.03885 ( 96.229% of  52)
  ==================       ============================
   Total Lewis              68.03394 ( 97.191% of  70)
  -----------------------------------------------------
   Valence non-Lewis         1.75726 (  2.510% of  70)
   Rydberg non-Lewis         0.20879 (  0.298% of  70)
  ==================       ============================
   Total non-Lewis           1.96606 (  2.809% of  70)
 --------------------------------------------------------


     (Occupancy)   Bond orbital/ Coefficients/ Hybrids
 -------------------------------------------------------------------------------
   1. (1.99563) BD ( 1) C  1- O  2       
               ( 34.15%)   0.5844* C  1 s( 32.39%)p 2.08( 67.44%)d 0.01(  0.18%)
                                        -0.0002  0.5671 -0.0473  0.0002  0.0046
                                         0.0212  0.0243 -0.0063  0.8075  0.0553
                                        -0.0028 -0.1347 -0.0064  0.0000 -0.0014
                                         0.0016 -0.0113 -0.0384 -0.0135
               ( 65.85%)   0.8115* O  2 s( 39.10%)p 1.55( 60.64%)d 0.01(  0.26%)
                                         0.0000  0.6250 -0.0164 -0.0026 -0.0064
                                        -0.0286 -0.0077  0.0027 -0.7768  0.0225
                                         0.0015  0.0395 -0.0023  0.0002  0.0037
                                        -0.0002 -0.0082 -0.0447 -0.0236
   2. (1.99527) BD ( 1) C  1- O  3       
               ( 35.21%)   0.5934* C  1 s( 33.31%)p 2.00( 66.53%)d 0.00(  0.15%)
                                        -0.0001  0.5753 -0.0454 -0.0039  0.0043
                                         0.6873  0.0553 -0.0076 -0.4332 -0.0074
                                        -0.0047 -0.0461  0.0058 -0.0024 -0.0334
                                         0.0005  0.0017  0.0148 -0.0141
               ( 64.79%)   0.8049* O  3 s( 35.59%)p 1.80( 64.17%)d 0.01(  0.24%)
                                         0.0000  0.5964 -0.0158 -0.0030 -0.0042
                                        -0.7055  0.0168  0.0004  0.3428 -0.0140
                                        -0.0029 -0.1612  0.0026  0.0002 -0.0360
                                         0.0096 -0.0043  0.0233 -0.0208
   3. (1.98466) BD ( 2) C  1- O  3       
               ( 24.34%)   0.4934* C  1 s(  0.38%)p99.99( 99.33%)d 0.76(  0.29%)
                                         0.0000  0.0605 -0.0124 -0.0014 -0.0008
                                         0.0893  0.0068  0.0007  0.1186 -0.0100
                                         0.0063  0.9840 -0.0467  0.0231  0.0028
                                         0.0432 -0.0308  0.0060  0.0065
               ( 75.66%)   0.8698* O  3 s(  0.46%)p99.99( 99.36%)d 0.39(  0.18%)
                                         0.0000  0.0679 -0.0028  0.0006 -0.0004
                                        -0.0725  0.0016 -0.0004  0.1909 -0.0015
                                         0.0001  0.9756 -0.0033  0.0018 -0.0095
                                        -0.0354  0.0194 -0.0008 -0.0077
   4. (1.98098) BD ( 1) C  1- C  4       
               ( 46.86%)   0.6846* C  1 s( 34.29%)p 1.91( 65.63%)d 0.00(  0.08%)
                                        -0.0002 -0.5825 -0.0596  0.0024  0.0045
                                         0.7146 -0.0154 -0.0192  0.3734  0.0067
                                        -0.0087 -0.0748 -0.0028  0.0004 -0.0211
                                         0.0049 -0.0001 -0.0174  0.0058
               ( 53.14%)   0.7289* C  4 s( 33.47%)p 1.99( 66.46%)d 0.00(  0.07%)
                                         0.0004 -0.5782  0.0193  0.0015  0.0028
                                        -0.7106  0.0100  0.0026 -0.3812  0.0185
                                         0.0024  0.1178 -0.0044  0.0006 -0.0201
                                         0.0063  0.0008 -0.0106  0.0106
   5. (1.99031) BD ( 1) C  4- O  6       
               ( 36.54%)   0.6045* C  4 s( 28.83%)p 2.46( 71.05%)d 0.00(  0.13%)
                                         0.0003 -0.5325 -0.0681  0.0052 -0.0039
                                        -0.0331 -0.0185 -0.0002  0.8291  0.0680
                                         0.0002 -0.1280 -0.0238  0.0014  0.0005
                                        -0.0004  0.0097  0.0302  0.0161
               ( 63.46%)   0.7966* O  6 s( 35.49%)p 1.81( 64.29%)d 0.01(  0.22%)
                                        -0.0001 -0.5954  0.0191 -0.0038  0.0013
                                         0.0271  0.0011  0.0008 -0.7794  0.0131
                                         0.0054  0.1855 -0.0026 -0.0007  0.0024
                                        -0.0013  0.0171  0.0397  0.0186
   6. (1.97526) BD ( 2) C  4- O  6       
               ( 26.21%)   0.5119* C  4 s(  0.38%)p99.99( 99.37%)d 0.64(  0.24%)
                                         0.0000 -0.0590  0.0152  0.0106  0.0021
                                         0.1471 -0.0088 -0.0015  0.1188 -0.0033
                                         0.0038  0.9774 -0.0416  0.0275 -0.0058
                                         0.0030 -0.0447  0.0071  0.0186
               ( 73.79%)   0.8590* O  6 s(  0.15%)p99.99( 99.70%)d 1.06(  0.16%)
                                         0.0000  0.0382 -0.0010 -0.0014 -0.0005
                                         0.1443 -0.0037 -0.0005  0.2059  0.0005
                                         0.0002  0.9663 -0.0079  0.0024  0.0052
                                        -0.0019  0.0356 -0.0090 -0.0133
   7. (1.97401) BD ( 1) C  4- C  7       
               ( 49.95%)   0.7068* C  4 s( 37.44%)p 1.67( 62.48%)d 0.00(  0.08%)
                                         0.0000  0.6117 -0.0136  0.0051 -0.0012
                                        -0.6864 -0.0032  0.0060  0.3798 -0.0079
                                        -0.0040  0.0951  0.0171  0.0039 -0.0198
                                        -0.0018  0.0060  0.0128 -0.0134
               ( 50.05%)   0.7074* C  7 s( 34.30%)p 1.91( 65.61%)d 0.00(  0.09%)
                                         0.0001  0.5853 -0.0205  0.0019 -0.0030
                                         0.7170 -0.0058 -0.0113 -0.3758 -0.0065
                                         0.0076  0.0068  0.0211  0.0044 -0.0173
                                         0.0050  0.0041  0.0189 -0.0148
   8. (1.99108) BD ( 1) C  5- H 13       
               ( 61.86%)   0.7865* C  5 s( 28.84%)p 2.46( 71.08%)d 0.00(  0.09%)
                                         0.0000 -0.5366 -0.0205 -0.0063 -0.0004
                                         0.7695  0.0186 -0.0037  0.3399  0.0166
                                         0.0022  0.0487 -0.0019  0.0096 -0.0189
                                        -0.0066 -0.0043 -0.0164  0.0136
               ( 38.14%)   0.6176* H 13 s(100.00%)
                                        -1.0000 -0.0048
   9. (1.98675) BD ( 1) C  5- H 14       
               ( 61.68%)   0.7853* C  5 s( 29.73%)p 2.36( 70.18%)d 0.00(  0.10%)
                                         0.0000  0.5449  0.0157 -0.0065  0.0000
                                         0.6172  0.0223 -0.0045 -0.4986 -0.0217
                                        -0.0004 -0.2667 -0.0039 -0.0089 -0.0228
                                        -0.0145  0.0120  0.0045 -0.0089
               ( 38.32%)   0.6191* H 14 s(100.00%)
                                         1.0000  0.0038
  10. (1.99425) BD ( 1) C  5- H 15       
               ( 60.27%)   0.7763* C  5 s( 30.00%)p 2.33( 69.90%)d 0.00(  0.11%)
                                        -0.0001  0.5470  0.0282 -0.0023 -0.0011
                                         0.0468  0.0104  0.0016  0.7928  0.0410
                                         0.0025 -0.2573 -0.0095 -0.0153  0.0032
                                        -0.0023 -0.0187 -0.0246 -0.0093
               ( 39.73%)   0.6303* H 15 s(100.00%)
                                         1.0000  0.0034
  11. (1.99365) BD ( 1) C  7- O  8       
               ( 36.69%)   0.6057* C  7 s( 31.40%)p 2.18( 68.47%)d 0.00(  0.13%)
                                        -0.0001  0.5586  0.0451  0.0010  0.0018
                                        -0.6910 -0.0490 -0.0120 -0.4470 -0.0232
                                        -0.0057  0.0616  0.0223  0.0025  0.0279
                                        -0.0045 -0.0026  0.0133 -0.0172
               ( 63.31%)   0.7957* O  8 s( 35.85%)p 1.78( 63.92%)d 0.01(  0.22%)
                                         0.0000  0.5986 -0.0093  0.0084 -0.0023
                                         0.6635 -0.0211 -0.0072  0.4055 -0.0175
                                        -0.0050 -0.1837  0.0020  0.0016  0.0362
                                        -0.0132 -0.0082  0.0180 -0.0193
  12. (1.98243) BD ( 2) C  7- O  8       
               ( 22.50%)   0.4744* C  7 s(  0.62%)p99.99( 99.07%)d 0.51(  0.32%)
                                         0.0000 -0.0753  0.0206  0.0074  0.0029
                                         0.0429 -0.0109  0.0058 -0.0235 -0.0073
                                        -0.0041  0.9916 -0.0598  0.0344 -0.0032
                                        -0.0447 -0.0282 -0.0093  0.0165
               ( 77.50%)   0.8803* O  8 s(  0.37%)p99.99( 99.48%)d 0.41(  0.15%)
                                         0.0000  0.0607 -0.0016 -0.0034 -0.0007
                                         0.1988  0.0002  0.0001  0.0276  0.0002
                                        -0.0011  0.9770 -0.0033  0.0037  0.0063
                                         0.0291  0.0217  0.0063 -0.0110
  13. (1.98785) BD ( 1) C  7- C  9       
               ( 49.46%)   0.7033* C  7 s( 33.56%)p 1.98( 66.38%)d 0.00(  0.06%)
                                        -0.0003  0.5792 -0.0101 -0.0013  0.0018
                                        -0.0492 -0.0187 -0.0009  0.8102  0.0017
                                        -0.0036  0.0662  0.0103  0.0002  0.0007
                                         0.0019  0.0045 -0.0212 -0.0112
               ( 50.54%)   0.7109* C  9 s( 26.13%)p 2.82( 73.81%)d 0.00(  0.07%)
                                         0.0002  0.5110 -0.0067 -0.0072  0.0011
                                         0.0113 -0.0129 -0.0032 -0.8547 -0.0055
                                         0.0054 -0.0849  0.0031  0.0047 -0.0007
                                         0.0017  0.0060 -0.0225 -0.0114
  14. (1.98992) BD ( 1) C  9- H 10       
               ( 60.40%)   0.7771* C  9 s( 25.29%)p 2.95( 74.62%)d 0.00(  0.10%)
                                         0.0001 -0.5028 -0.0044 -0.0069  0.0011
                                         0.7594  0.0064  0.0036 -0.3165 -0.0061
                                        -0.0116  0.2629  0.0010 -0.0031  0.0133
                                        -0.0189  0.0054 -0.0180  0.0095
               ( 39.60%)   0.6293* H 10 s(100.00%)
                                        -1.0000 -0.0042
  15. (1.97871) BD ( 1) C  9- H 11       
               ( 64.66%)   0.8041* C  9 s( 23.38%)p 3.27( 76.54%)d 0.00(  0.08%)
                                        -0.0001  0.4834  0.0072 -0.0052  0.0002
                                         0.6345 -0.0028 -0.0039  0.3461  0.0040
                                         0.0056 -0.4926  0.0169  0.0042  0.0096
                                        -0.0226 -0.0095  0.0102  0.0029
               ( 35.34%)   0.5945* H 11 s(100.00%)
                                         1.0000  0.0051
  16. (1.97598) BD ( 1) C  9- H 12       
               ( 60.91%)   0.7805* C  9 s( 25.18%)p 2.97( 74.74%)d 0.00(  0.09%)
                                        -0.0002  0.5017 -0.0005  0.0063  0.0003
                                         0.1383  0.0038 -0.0049  0.2196  0.0038
                                         0.0109  0.8245 -0.0001 -0.0006  0.0009
                                         0.0097  0.0079 -0.0013  0.0266
               ( 39.09%)   0.6252* H 12 s(100.00%)
                                         1.0000  0.0014
  17. (1.99940) CR ( 1) C  1             s(100.00%)p 0.00(  0.00%)
                                         1.0000  0.0000  0.0000  0.0000  0.0000
                                         0.0002  0.0000  0.0000  0.0002  0.0000
                                         0.0000  0.0000  0.0000  0.0000  0.0000
                                         0.0000  0.0000  0.0000  0.0000
  18. (1.99978) CR ( 1) O  2             s(100.00%)p 0.00(  0.00%)
                                         1.0000  0.0003  0.0000  0.0000  0.0000
                                         0.0000  0.0000  0.0000  0.0002  0.0000
                                         0.0000  0.0000  0.0000  0.0000  0.0000
                                         0.0000  0.0000  0.0000  0.0000
  19. (1.99981) CR ( 1) O  3             s(100.00%)p 0.00(  0.00%)
                                         1.0000  0.0003  0.0000  0.0000  0.0000
                                         0.0002  0.0000  0.0000 -0.0002  0.0000
                                         0.0000  0.0000  0.0000  0.0000  0.0000
                                         0.0000  0.0000  0.0000  0.0000
  20. (1.99874) CR ( 1) C  4             s(100.00%)p 0.00(  0.00%)
                                         1.0000  0.0004  0.0000  0.0000  0.0000
                                         0.0002  0.0000  0.0000 -0.0001  0.0000
                                         0.0000  0.0000  0.0000  0.0000  0.0000
                                         0.0000  0.0000  0.0000  0.0000
  21. (1.99953) CR ( 1) C  5             s(100.00%)
                                         1.0000  0.0000  0.0000  0.0000  0.0000
                                         0.0000  0.0000  0.0000  0.0001  0.0000
                                         0.0000  0.0000  0.0000  0.0000  0.0000
                                         0.0000  0.0000  0.0000  0.0000
  22. (1.99982) CR ( 1) O  6             s(100.00%)p 0.00(  0.00%)
                                         1.0000  0.0003  0.0000  0.0000  0.0000
                                         0.0000  0.0000  0.0000 -0.0003  0.0000
                                         0.0000  0.0001  0.0000  0.0000  0.0000
                                         0.0000  0.0000  0.0000  0.0000
  23. (1.99894) CR ( 1) C  7             s(100.00%)p 0.00(  0.00%)
                                         1.0000  0.0002  0.0000  0.0000  0.0000
                                        -0.0002  0.0000  0.0000  0.0002  0.0000
                                         0.0000  0.0000  0.0000  0.0000  0.0000
                                         0.0000  0.0000  0.0000  0.0000
  24. (1.99981) CR ( 1) O  8             s(100.00%)p 0.00(  0.00%)
                                         1.0000  0.0003  0.0000  0.0000  0.0000
                                        -0.0003  0.0000  0.0000 -0.0001  0.0000
                                         0.0000  0.0000  0.0000  0.0000  0.0000
                                         0.0000  0.0000  0.0000  0.0000
  25. (1.99927) CR ( 1) C  9             s(100.00%)p 0.00(  0.00%)
                                         1.0000  0.0001  0.0000  0.0000  0.0000
                                         0.0000  0.0000  0.0000  0.0003  0.0000
                                         0.0000  0.0001  0.0000  0.0000  0.0000
                                         0.0000  0.0000  0.0000  0.0000
  26. (1.97250) LP ( 1) O  2             s( 59.87%)p 0.67( 40.09%)d 0.00(  0.04%)
                                        -0.0004  0.7737  0.0105  0.0000  0.0034
                                         0.1432  0.0057 -0.0047  0.6115 -0.0055
                                        -0.0047 -0.0802  0.0010  0.0005 -0.0069
                                         0.0011  0.0039  0.0146  0.0095
  27. (1.88597) LP ( 2) O  2             s(  0.90%)p99.99( 98.95%)d 0.16(  0.14%)
                                         0.0000  0.0947 -0.0055  0.0057 -0.0012
                                        -0.9882 -0.0120 -0.0066  0.1126 -0.0062
                                         0.0050  0.0051 -0.0012  0.0001  0.0368
                                        -0.0041 -0.0003  0.0080 -0.0011
  28. (1.60735) LP ( 3) O  2             s(  0.14%)p99.99( 99.68%)d 1.37(  0.19%)
                                         0.0000  0.0369 -0.0005  0.0003  0.0000
                                         0.0177 -0.0024  0.0014  0.0797  0.0009
                                         0.0008  0.9950  0.0039 -0.0025 -0.0012
                                        -0.0055 -0.0421  0.0025  0.0080
  29. (1.98114) LP ( 1) O  3             s( 63.56%)p 0.57( 36.42%)d 0.00(  0.02%)
                                        -0.0004  0.7972  0.0076  0.0007  0.0021
                                         0.4966 -0.0025  0.0032 -0.3393  0.0061
                                         0.0001  0.0479 -0.0011 -0.0002  0.0119
                                        -0.0016  0.0017 -0.0042  0.0088
  30. (1.89741) LP ( 2) O  3             s(  0.39%)p99.99( 99.48%)d 0.35(  0.14%)
                                         0.0000  0.0616  0.0077  0.0009 -0.0007
                                         0.4975  0.0040 -0.0019  0.8539  0.0093
                                        -0.0014 -0.1344 -0.0005  0.0003 -0.0186
                                         0.0027 -0.0052 -0.0313 -0.0001
  31. (1.14265) LP ( 1) C  5             s( 12.15%)p 7.23( 87.84%)d 0.00(  0.01%)
                                         0.0000  0.3375 -0.0872  0.0032  0.0014
                                         0.1492 -0.0294  0.0014  0.0598 -0.0153
                                        -0.0115  0.9180 -0.0928 -0.0019 -0.0014
                                         0.0039  0.0065  0.0010  0.0092
  32. (1.98307) LP ( 1) O  6             s( 64.38%)p 0.55( 35.60%)d 0.00(  0.02%)
                                        -0.0004  0.8023  0.0088 -0.0015  0.0007
                                         0.0143  0.0002  0.0004 -0.5894  0.0040
                                        -0.0016  0.0918 -0.0009  0.0007  0.0007
                                         0.0004  0.0046  0.0107  0.0088
  33. (1.91133) LP ( 2) O  6             s(  0.00%)p 1.00( 99.89%)d 0.00(  0.11%)
                                         0.0000  0.0008 -0.0008 -0.0005 -0.0003
                                        -0.9885 -0.0075  0.0002  0.0001  0.0008
                                         0.0000  0.1475  0.0028  0.0009 -0.0324
                                         0.0071  0.0045  0.0016 -0.0017
  34. (1.97692) LP ( 1) O  8             s( 63.71%)p 0.57( 36.27%)d 0.00(  0.02%)
                                        -0.0004  0.7982  0.0041 -0.0039  0.0012
                                        -0.5003  0.0056 -0.0005 -0.3294  0.0094
                                         0.0001  0.0615 -0.0017  0.0003 -0.0110
                                         0.0029  0.0020 -0.0039  0.0083
  35. (1.90378) LP ( 2) O  8             s(  0.05%)p99.99( 99.84%)d 2.33(  0.11%)
                                        -0.0001  0.0211  0.0063  0.0028 -0.0004
                                        -0.5170 -0.0080 -0.0026  0.8512  0.0116
                                         0.0011  0.0798  0.0021 -0.0007  0.0133
                                         0.0057 -0.0040 -0.0302 -0.0028
  36. (0.02049) RY*( 1) C  1             s(  7.07%)p12.60( 89.12%)d 0.54(  3.81%)
                                         0.0000  0.0192  0.2618 -0.0394  0.0163
                                         0.0210  0.1388  0.0982  0.0688 -0.9153
                                        -0.0012 -0.0128  0.1380  0.0096  0.0543
                                         0.0001  0.0193  0.1863  0.0073
  37. (0.01717) RY*( 2) C  1             s( 36.83%)p 1.39( 51.34%)d 0.32( 11.83%)
                                         0.0000  0.0490  0.5823  0.1514  0.0629
                                         0.0798 -0.6753  0.1206  0.0194  0.1238
                                         0.1413  0.0028 -0.0024 -0.0274  0.3007
                                        -0.0664  0.0424  0.1467  0.0122
  38. (0.00630) RY*( 3) C  1             s( 31.94%)p 1.11( 35.43%)d 1.02( 32.63%)
                                         0.0000 -0.0217 -0.1255  0.5479 -0.0540
                                         0.0070  0.4255  0.3108  0.0063  0.1281
                                         0.2434 -0.0038 -0.0062 -0.0290  0.4686
                                        -0.0613  0.0372  0.3082  0.0814
  39. (0.00576) RY*( 4) C  1             s(  1.19%)p 7.21(  8.58%)d75.77( 90.23%)
                                         0.0000 -0.0030  0.0935  0.0531  0.0186
                                         0.0032  0.1091 -0.0494  0.0148  0.0433
                                        -0.0842  0.0597  0.1522 -0.1886 -0.1007
                                        -0.5045  0.7699 -0.1125 -0.1795
  40. (0.00264) RY*( 5) C  1             s(  5.88%)p 1.64(  9.65%)d14.36( 84.47%)
                                         0.0000 -0.0100  0.2275 -0.0752 -0.0358
                                        -0.0061  0.1443 -0.1001  0.0361  0.1953
                                         0.1572 -0.0068 -0.0381  0.0005 -0.5365
                                         0.0731  0.0491  0.7410 -0.0095
  41. (0.00204) RY*( 6) C  1             s( 46.07%)p 0.72( 33.35%)d 0.45( 20.59%)
                                         0.0000 -0.0180  0.6668  0.0860 -0.0912
                                         0.0326  0.4752 -0.1771  0.0063  0.1886
                                        -0.0518  0.0085  0.1886 -0.0366 -0.0351
                                        -0.0149 -0.2744 -0.3509  0.0773
  42. (0.00078) RY*( 7) C  1             s(  4.38%)p16.27( 71.18%)d 5.59( 24.44%)
                                         0.0000 -0.0015  0.2023  0.0470 -0.0251
                                         0.0077  0.1394 -0.1156 -0.0041 -0.0731
                                         0.0378 -0.0436 -0.8031  0.1592  0.0624
                                         0.3198  0.3399 -0.1412 -0.0526
  43. (0.00034) RY*( 8) C  1             s(  7.90%)p 8.24( 65.12%)d 3.41( 26.97%)
                                         0.0000  0.0063 -0.0873  0.2581  0.0689
                                        -0.0120 -0.0757 -0.4360 -0.0031 -0.1520
                                         0.0327  0.0018 -0.3639 -0.5464 -0.0456
                                        -0.3978 -0.3212  0.0553  0.0565
  44. (0.00027) RY*( 9) C  1             s( 53.09%)p 0.66( 35.07%)d 0.22( 11.84%)
                                         0.0000  0.0187 -0.0767  0.6601 -0.2982
                                        -0.0149 -0.2086 -0.3081 -0.0019 -0.1036
                                        -0.2871 -0.0002  0.1821  0.2928 -0.2326
                                         0.1767  0.1077 -0.0183  0.1455
  45. (0.00011) RY*(10) C  1             s(  8.93%)p 8.66( 77.40%)d 1.53( 13.67%)
                                         0.0000 -0.0003 -0.0850  0.0344  0.2845
                                        -0.0103 -0.0042 -0.4994 -0.0066 -0.0473
                                         0.6621  0.0034  0.2894 -0.0037  0.0922
                                         0.2905  0.1507 -0.1093 -0.0954
  46. (0.00004) RY*(11) C  1             s( 47.31%)p 0.48( 22.76%)d 0.63( 29.94%)
  47. (0.00005) RY*(12) C  1             s(  4.14%)p13.84( 57.33%)d 9.30( 38.53%)
  48. (0.00003) RY*(13) C  1             s( 23.86%)p 1.46( 34.92%)d 1.73( 41.22%)
  49. (0.00001) RY*(14) C  1             s( 21.05%)p 0.47(  9.81%)d 3.29( 69.15%)
  50. (0.00536) RY*( 1) O  2             s( 23.33%)p 3.26( 76.06%)d 0.03(  0.61%)
                                         0.0000  0.0034  0.4753 -0.0816 -0.0263
                                        -0.0139  0.8683 -0.0075 -0.0183  0.0052
                                        -0.0763  0.0041 -0.0135  0.0029  0.0329
                                        -0.0078  0.0024  0.0697 -0.0089
  51. (0.00238) RY*( 2) O  2             s(  4.97%)p18.77( 93.28%)d 0.35(  1.75%)
                                         0.0000 -0.0007  0.2063  0.0803 -0.0260
                                        -0.0011 -0.0924 -0.0058 -0.0009  0.2015
                                         0.0198  0.0005  0.9388  0.0444  0.0164
                                        -0.0758  0.1058 -0.0087 -0.0156
  52. (0.00166) RY*( 3) O  2             s( 65.34%)p 0.52( 34.13%)d 0.01(  0.54%)
                                         0.0000 -0.0010  0.7871  0.1440 -0.1146
                                         0.0013 -0.4214  0.0528 -0.0042  0.2742
                                         0.0623 -0.0012 -0.2860 -0.0010  0.0446
                                         0.0032 -0.0312 -0.0074  0.0483
  53. (0.00056) RY*( 4) O  2             s( 27.97%)p 2.15( 60.08%)d 0.43( 11.96%)
                                         0.0000  0.0048  0.1092  0.5151  0.0487
                                         0.0185  0.0354 -0.0537 -0.0075 -0.6051
                                         0.4765  0.0002  0.0505 -0.0235  0.3112
                                        -0.0200 -0.0180 -0.1440 -0.0349
  54. (0.00018) RY*( 5) O  2             s( 49.49%)p 0.83( 41.31%)d 0.19(  9.21%)
                                         0.0000 -0.0045 -0.2235  0.6550  0.1259
                                         0.0071  0.1646  0.1057  0.0112  0.4860
                                        -0.2323 -0.0029 -0.0743 -0.2810  0.2432
                                        -0.0057 -0.0107 -0.0844  0.1602
  55. (0.00013) RY*( 6) O  2             s( 13.87%)p 5.50( 76.27%)d 0.71(  9.87%)
                                         0.0000  0.0052  0.1020 -0.0697  0.3513
                                         0.0008 -0.0814  0.6866 -0.0104 -0.2990
                                        -0.3909  0.0013  0.0330  0.2028  0.1767
                                        -0.1412  0.0684 -0.0429  0.2024
  56. (0.00007) RY*( 7) O  2             s(  6.63%)p 8.32( 55.12%)d 5.77( 38.25%)
  57. (0.00006) RY*( 8) O  2             s( 13.55%)p 5.10( 69.02%)d 1.29( 17.43%)
  58. (0.00003) RY*( 9) O  2             s( 21.21%)p 0.46(  9.80%)d 3.25( 68.99%)
  59. (0.00002) RY*(10) O  2             s(  6.91%)p 0.47(  3.27%)d13.01( 89.83%)
  60. (0.00001) RY*(11) O  2             s( 58.39%)p 0.53( 31.15%)d 0.18( 10.46%)
  61. (0.00001) RY*(12) O  2             s(  5.20%)p 1.18(  6.16%)d17.04( 88.64%)
  62. (0.00001) RY*(13) O  2             s(  2.85%)p12.72( 36.19%)d21.42( 60.97%)
  63. (0.00000) RY*(14) O  2             s(  0.32%)p27.90(  8.81%)d99.99( 90.87%)
  64. (0.00398) RY*( 1) O  3             s( 16.39%)p 5.08( 83.31%)d 0.02(  0.30%)
                                         0.0000  0.0001  0.3971 -0.0604 -0.0511
                                        -0.0168  0.4838 -0.0118 -0.0031  0.7728
                                        -0.0267  0.0013 -0.0236  0.0011  0.0430
                                        -0.0036  0.0050  0.0078  0.0325
  65. (0.00220) RY*( 2) O  3             s(  0.14%)p99.99( 98.47%)d 9.89(  1.39%)
                                         0.0000  0.0001 -0.0179  0.0320  0.0076
                                         0.0009 -0.0545  0.0115  0.0009  0.0766
                                         0.0185  0.0071  0.9868 -0.0405  0.0014
                                         0.0359 -0.1060  0.0238  0.0284
  66. (0.00074) RY*( 3) O  3             s( 47.72%)p 1.02( 48.83%)d 0.07(  3.45%)
                                         0.0000  0.0066  0.5464  0.4164 -0.0723
                                        -0.0146 -0.6320 -0.2059  0.0087  0.1430
                                         0.1508 -0.0012 -0.0521 -0.0150 -0.0574
                                         0.0156  0.0323  0.1704  0.0301
  67. (0.00059) RY*( 4) O  3             s( 58.08%)p 0.53( 30.81%)d 0.19( 11.11%)
                                         0.0000  0.0006  0.6932 -0.3167 -0.0004
                                        -0.0124  0.1247  0.0704 -0.0073 -0.4613
                                        -0.2630  0.0033  0.0705  0.0213 -0.0864
                                         0.0259 -0.0335 -0.3023  0.1021
  68. (0.00014) RY*( 5) O  3             s( 17.62%)p 4.08( 71.99%)d 0.59( 10.39%)
                                         0.0000  0.0031  0.0028  0.4197 -0.0070
                                        -0.0100 -0.0662  0.6412  0.0130  0.0424
                                        -0.5281 -0.0005 -0.0174  0.1523  0.3082
                                        -0.0320 -0.0317  0.0290  0.0776
  69. (0.00008) RY*( 6) O  3             s( 16.77%)p 1.81( 30.39%)d 3.15( 52.85%)
  70. (0.00002) RY*( 7) O  3             s( 12.66%)p 6.58( 83.34%)d 0.32(  4.00%)
  71. (0.00001) RY*( 8) O  3             s( 97.71%)p 0.02(  1.78%)d 0.01(  0.51%)
  72. (0.00001) RY*( 9) O  3             s(  1.01%)p97.24( 98.57%)d 0.41(  0.42%)
  73. (0.00001) RY*(10) O  3             s(  1.69%)p17.33( 29.35%)d40.71( 68.95%)
  74. (0.00001) RY*(11) O  3             s(  0.19%)p 3.52(  0.66%)d99.99( 99.15%)
  75. (0.00001) RY*(12) O  3             s(  1.07%)p 2.10(  2.25%)d90.27( 96.68%)
  76. (0.00001) RY*(13) O  3             s(  2.91%)p 1.47(  4.27%)d31.88( 92.81%)
  77. (0.00000) RY*(14) O  3             s( 26.02%)p 0.64( 16.57%)d 2.21( 57.41%)
  78. (0.01596) RY*( 1) C  4             s( 15.22%)p 5.51( 83.78%)d 0.07(  1.00%)
                                         0.0000 -0.0549  0.3855  0.0223  0.0076
                                        -0.0084  0.1700 -0.0468  0.0718 -0.8787
                                        -0.0586 -0.0192  0.1369  0.0827  0.0305
                                         0.0311 -0.0742  0.0203  0.0467
  79. (0.00628) RY*( 2) C  4             s(  8.95%)p 5.11( 45.79%)d 5.05( 45.25%)
                                         0.0000  0.0267  0.2851 -0.0758 -0.0427
                                        -0.0102  0.3322 -0.0781  0.0063  0.2472
                                         0.0272 -0.0551 -0.3456  0.3962  0.0633
                                         0.2183 -0.5446  0.0678  0.3158
  80. (0.00507) RY*( 3) C  4             s(  3.22%)p18.65( 60.03%)d11.42( 36.75%)
                                         0.0000  0.0018  0.1522  0.0896 -0.0314
                                         0.0087 -0.7140  0.1599 -0.0113 -0.0427
                                        -0.1779 -0.0292 -0.0338  0.1711 -0.5088
                                         0.2030 -0.1482  0.1665  0.1331
  81. (0.00332) RY*( 4) C  4             s( 35.35%)p 0.91( 32.34%)d 0.91( 32.31%)
                                         0.0000 -0.0067  0.5876  0.0238 -0.0873
                                         0.0260  0.3505  0.1088  0.0415  0.3104
                                        -0.0580  0.0125  0.2677 -0.1217 -0.4784
                                         0.0198  0.2390 -0.1225 -0.1472
  82. (0.00222) RY*( 5) C  4             s( 30.86%)p 0.82( 25.37%)d 1.42( 43.77%)
                                         0.0000 -0.0025  0.5361  0.1330 -0.0592
                                        -0.0145 -0.3721 -0.1358  0.0157  0.2212
                                        -0.1517  0.0010  0.1555  0.0119  0.6233
                                        -0.1905  0.0386  0.0923 -0.0539
  83. (0.00083) RY*( 6) C  4             s( 25.49%)p 2.03( 51.78%)d 0.89( 22.73%)
                                         0.0000 -0.0036 -0.2599  0.4181 -0.1118
                                         0.0086  0.2696  0.3027 -0.0289  0.0596
                                        -0.3990  0.0118  0.4084  0.1515  0.0911
                                         0.0618 -0.0751  0.4521  0.0714
  84. (0.00075) RY*( 7) C  4             s( 13.94%)p 4.96( 69.12%)d 1.21( 16.93%)
                                         0.0000  0.0123  0.1702  0.3321  0.0023
                                        -0.0044  0.0805  0.3733 -0.0080 -0.0737
                                         0.0738 -0.0142 -0.6765 -0.2767  0.0490
                                        -0.0614  0.2539  0.3140 -0.0085
  85. (0.00045) RY*( 8) C  4             s( 34.38%)p 0.74( 25.51%)d 1.17( 40.11%)
                                         0.0000 -0.0015  0.0081  0.5777  0.1001
                                        -0.0012 -0.0698  0.2984  0.0190  0.0054
                                         0.3626 -0.0110  0.1531 -0.0759  0.0961
                                         0.1344 -0.2640 -0.5474  0.0675
  86. (0.00035) RY*( 9) C  4             s(  8.61%)p 1.16(  9.96%)d 9.46( 81.43%)
                                         0.0000  0.0036 -0.0232  0.2847  0.0669
                                         0.0010  0.0348 -0.2975 -0.0062  0.0051
                                        -0.0352 -0.0163 -0.0300 -0.0861 -0.2912
                                        -0.7867 -0.2632  0.0334  0.2006
  87. (0.00031) RY*(10) C  4             s(  7.52%)p 8.30( 62.40%)d 4.00( 30.08%)
                                         0.0000  0.0062 -0.0094  0.2665 -0.0635
                                         0.0060 -0.0087 -0.2849 -0.0144  0.0120
                                         0.5284  0.0019  0.0839  0.5061 -0.0633
                                         0.0330  0.4741  0.2071  0.1677
  88. (0.00012) RY*(11) C  4             s( 22.77%)p 2.12( 48.21%)d 1.27( 29.02%)
                                         0.0000  0.0014  0.0349 -0.2878  0.3790
                                         0.0013 -0.0026  0.5516  0.0057  0.0100
                                        -0.0828 -0.0003  0.0237  0.4126  0.0729
                                        -0.3672  0.2198 -0.1900  0.2562
  89. (0.00011) RY*(12) C  4             s( 32.27%)p 1.48( 47.70%)d 0.62( 20.03%)
                                         0.0000  0.0071 -0.0368  0.3165  0.4702
                                         0.0012  0.0605 -0.3681  0.0023  0.0195
                                        -0.5251 -0.0016 -0.2156  0.1231 -0.0218
                                         0.2280  0.2581 -0.2849  0.0096
  90. (0.00005) RY*(13) C  4             s( 40.52%)p 0.71( 28.64%)d 0.76( 30.84%)
  91. (0.00003) RY*(14) C  4             s( 20.77%)p 0.48( 10.00%)d 3.33( 69.22%)
  92. (0.01217) RY*( 1) C  5             s( 43.14%)p 1.29( 55.58%)d 0.03(  1.28%)
                                         0.0000  0.0223  0.6560 -0.0104  0.0215
                                         0.0177  0.2345 -0.0421  0.0031  0.0355
                                         0.0439  0.1274  0.6806 -0.1266 -0.0165
                                         0.0054 -0.0292  0.0041  0.1080
  93. (0.00150) RY*( 2) C  5             s( 59.03%)p 0.65( 38.42%)d 0.04(  2.56%)
                                         0.0000 -0.0245  0.5715  0.5129  0.0050
                                         0.0119 -0.1420 -0.0920 -0.0138  0.1539
                                         0.1840  0.0066 -0.5316 -0.1228  0.0658
                                         0.1146  0.0667  0.0283 -0.0534
  94. (0.00103) RY*( 3) C  5             s(  6.03%)p15.35( 92.65%)d 0.22(  1.31%)
                                         0.0000 -0.0018  0.0763  0.2220 -0.0723
                                         0.0026 -0.0056 -0.2258  0.0454 -0.9080
                                        -0.2020 -0.0148 -0.0094  0.0886  0.0009
                                         0.0705 -0.0483  0.0664  0.0374
  95. (0.00095) RY*( 4) C  5             s(  1.19%)p73.30( 86.91%)d10.04( 11.90%)
                                         0.0000  0.0076  0.0865 -0.0564 -0.0337
                                         0.0217 -0.8902 -0.0657  0.0098 -0.0210
                                         0.0951 -0.0020  0.2317  0.0924 -0.0096
                                        -0.3272  0.0894  0.0524  0.0336
  96. (0.00032) RY*( 5) C  5             s(  2.99%)p25.75( 77.06%)d 6.67( 19.95%)
                                         0.0000 -0.0102  0.1521  0.0751  0.0322
                                        -0.0037  0.0175  0.7045  0.0073 -0.0839
                                        -0.4798 -0.0040 -0.1175 -0.1509 -0.0602
                                        -0.3457  0.2159  0.0064  0.1723
  97. (0.00017) RY*( 6) C  5             s( 18.56%)p 3.21( 59.56%)d 1.18( 21.88%)
                                         0.0000 -0.0081 -0.2650  0.3340  0.0612
                                         0.0002 -0.0275  0.1683 -0.0005 -0.1269
                                         0.3085 -0.0020  0.1663 -0.6539 -0.1202
                                        -0.1761 -0.3396  0.0001 -0.2409
  98. (0.00013) RY*( 7) C  5             s( 26.34%)p 0.95( 24.96%)d 1.85( 48.70%)
                                         0.0000  0.0076 -0.2117  0.4675  0.0069
                                        -0.0178  0.2426 -0.3538  0.0106  0.1417
                                        -0.0495  0.0024  0.1544  0.1370 -0.1741
                                        -0.4690  0.4841  0.0049 -0.0486
  99. (0.00008) RY*( 8) C  5             s( 22.55%)p 1.91( 43.04%)d 1.53( 34.40%)
 100. (0.00006) RY*( 9) C  5             s( 11.43%)p 1.90( 21.78%)d 5.84( 66.78%)
 101. (0.00004) RY*(10) C  5             s(  5.50%)p12.77( 70.29%)d 4.40( 24.21%)
 102. (0.00001) RY*(11) C  5             s( 97.77%)p 0.02(  1.56%)d 0.01(  0.68%)
 103. (0.00001) RY*(12) C  5             s(  0.21%)p13.09(  2.77%)d99.99( 97.01%)
 104. (0.00001) RY*(13) C  5             s(  0.16%)p53.29(  8.69%)d99.99( 91.15%)
 105. (0.00001) RY*(14) C  5             s(  4.37%)p 4.06( 17.75%)d17.82( 77.88%)
 106. (0.00360) RY*( 1) O  6             s(  1.90%)p51.12( 97.32%)d 0.41(  0.77%)
                                         0.0000  0.0004  0.1286  0.0499  0.0044
                                        -0.0061  0.8188 -0.0699  0.0013 -0.1608
                                        -0.0032 -0.0024 -0.5215  0.0032 -0.0615
                                        -0.0079  0.0501 -0.0147 -0.0342
 107. (0.00259) RY*( 2) O  6             s(  2.79%)p34.68( 96.67%)d 0.19(  0.54%)
                                         0.0000 -0.0002  0.1628  0.0340 -0.0149
                                        -0.0007 -0.5627  0.0396 -0.0003 -0.2143
                                         0.0168 -0.0107 -0.7751 -0.0378  0.0281
                                        -0.0233  0.0564 -0.0156 -0.0251
 108. (0.00080) RY*( 3) O  6             s( 86.64%)p 0.11(  9.94%)d 0.04(  3.42%)
                                         0.0000  0.0044  0.9224  0.1194 -0.0348
                                        -0.0017 -0.0201 -0.1396  0.0194  0.0398
                                         0.1794 -0.0017  0.2038 -0.0618  0.0379
                                         0.0100  0.0404 -0.0877  0.1528
 109. (0.00039) RY*( 4) O  6             s( 10.39%)p 8.09( 84.11%)d 0.53(  5.50%)
                                         0.0000 -0.0018  0.0597  0.2670 -0.1705
                                         0.0020 -0.0162  0.1227 -0.0015 -0.7605
                                        -0.3969  0.0011  0.2404  0.1791 -0.0248
                                        -0.0104  0.1006  0.2092  0.0192
 110. (0.00022) RY*( 5) O  6             s( 51.52%)p 0.84( 43.40%)d 0.10(  5.08%)
                                         0.0000 -0.0042 -0.2440  0.6327  0.2352
                                        -0.0028 -0.0369 -0.4543 -0.0171 -0.2069
                                         0.3349  0.0062  0.0549 -0.2606  0.0798
                                        -0.0303 -0.0792 -0.1925 -0.0109
 111. (0.00010) RY*( 6) O  6             s(  6.32%)p13.79( 87.16%)d 1.03(  6.52%)
 112. (0.00010) RY*( 7) O  6             s(  9.66%)p 8.17( 78.93%)d 1.18( 11.41%)
 113. (0.00004) RY*( 8) O  6             s( 40.13%)p 0.89( 35.78%)d 0.60( 24.08%)
 114. (0.00002) RY*( 9) O  6             s( 76.11%)p 0.18( 13.77%)d 0.13( 10.12%)
 115. (0.00001) RY*(10) O  6             s(  3.90%)p 2.63( 10.26%)d22.03( 85.84%)
 116. (0.00002) RY*(11) O  6             s(  0.98%)p 0.50(  0.49%)d99.99( 98.53%)
 117. (0.00001) RY*(12) O  6             s(  2.09%)p 0.90(  1.87%)d45.98( 96.04%)
 118. (0.00001) RY*(13) O  6             s(  3.52%)p 9.72( 34.27%)d17.65( 62.21%)
 119. (0.00000) RY*(14) O  6             s(  4.04%)p 1.62(  6.54%)d22.13( 89.42%)
 120. (0.01626) RY*( 1) C  7             s( 15.52%)p 5.29( 82.13%)d 0.15(  2.35%)
                                         0.0000 -0.0409  0.3902 -0.0281 -0.0235
                                         0.0464 -0.7446 -0.0850  0.0206 -0.4853
                                        -0.0724 -0.0303  0.0693  0.1025 -0.0164
                                        -0.0855 -0.0271 -0.1001  0.0718
 121. (0.01095) RY*( 2) C  7             s(  2.02%)p38.83( 78.27%)d 9.78( 19.72%)
                                         0.0000 -0.0155  0.0022  0.1407 -0.0108
                                        -0.0099  0.3635 -0.2792  0.0197 -0.6661
                                         0.1640  0.0405  0.2692 -0.1657 -0.1049
                                         0.2274  0.1194  0.3190 -0.1358
 122. (0.00819) RY*( 3) C  7             s(  0.58%)p92.33( 53.18%)d80.30( 46.25%)
                                         0.0000 -0.0297  0.0452 -0.0300 -0.0440
                                         0.0142 -0.2437  0.1506 -0.0043  0.2356
                                        -0.1040  0.0677  0.4019 -0.4660  0.1736
                                         0.5494  0.1443 -0.1405 -0.2998
 123. (0.00361) RY*( 4) C  7             s( 18.65%)p 2.23( 41.55%)d 2.13( 39.80%)
                                         0.0000 -0.0103  0.0424  0.4297  0.0045
                                        -0.0054 -0.3481 -0.2012  0.0171  0.3608
                                         0.2921 -0.0014 -0.1695 -0.0966 -0.2318
                                         0.0471  0.0254  0.5814 -0.0583
 124. (0.00192) RY*( 5) C  7             s( 11.35%)p 6.55( 74.30%)d 1.27( 14.35%)
                                         0.0000  0.0242  0.3339  0.0037  0.0373
                                         0.0163  0.1221  0.1957  0.0008 -0.1840
                                        -0.0068 -0.0325 -0.7308 -0.3472  0.1271
                                         0.2113 -0.2194 -0.0148 -0.1854
 125. (0.00129) RY*( 6) C  7             s( 65.70%)p 0.48( 31.62%)d 0.04(  2.68%)
                                         0.0000  0.0043  0.7712 -0.2470  0.0360
                                         0.0195  0.2796 -0.3419  0.0113  0.3069
                                         0.0393  0.0007  0.1577  0.0056 -0.1104
                                        -0.0283  0.0659 -0.0233  0.0943
 126. (0.00085) RY*( 7) C  7             s( 42.48%)p 0.85( 36.16%)d 0.50( 21.36%)
                                         0.0000  0.0006  0.2742  0.5898 -0.0416
                                         0.0227  0.1607  0.2468  0.0127  0.0091
                                        -0.4668 -0.0108  0.1963  0.1323  0.3783
                                        -0.1075 -0.0945  0.2063  0.0866
 127. (0.00060) RY*( 8) C  7             s(  9.32%)p 1.49( 13.92%)d 8.24( 76.76%)
                                         0.0000  0.0143  0.0857  0.2921  0.0176
                                        -0.0225  0.0781  0.2856 -0.0146 -0.0247
                                        -0.1874 -0.0019 -0.0163  0.1219 -0.7768
                                         0.2706  0.0687 -0.2758  0.1010
 128. (0.00032) RY*( 9) C  7             s(  4.60%)p 9.28( 42.65%)d11.47( 52.75%)
                                         0.0000  0.0111  0.1419 -0.0614  0.1481
                                         0.0048  0.0083  0.5103  0.0012 -0.0655
                                         0.3987  0.0073 -0.0267  0.0449  0.1688
                                         0.0499  0.5850  0.1305  0.3704
 129. (0.00024) RY*(10) C  7             s(  2.90%)p12.34( 35.81%)d21.12( 61.29%)
                                         0.0000  0.0018 -0.0136  0.1283 -0.1112
                                        -0.0005  0.0133 -0.0330 -0.0067 -0.0248
                                        -0.1769  0.0005 -0.0430 -0.5683 -0.1521
                                        -0.6151  0.4259 -0.1387 -0.1037
 130. (0.00013) RY*(11) C  7             s( 24.19%)p 1.57( 37.91%)d 1.57( 37.90%)
                                         0.0000 -0.0043  0.1088  0.4321 -0.2082
                                         0.0047  0.0628 -0.0197 -0.0070  0.0138
                                         0.5904 -0.0094  0.0661  0.1464  0.1520
                                        -0.1016 -0.0643 -0.5128 -0.2802
 131. (0.00006) RY*(12) C  7             s( 15.03%)p 2.69( 40.48%)d 2.96( 44.50%)
 132. (0.00003) RY*(13) C  7             s( 85.39%)p 0.03(  2.79%)d 0.14( 11.82%)
 133. (0.00002) RY*(14) C  7             s(  2.39%)p12.45( 29.73%)d28.42( 67.88%)
 134. (0.00347) RY*( 1) O  8             s(  3.16%)p30.27( 95.73%)d 0.35(  1.11%)
                                         0.0000 -0.0031  0.1771 -0.0022 -0.0152
                                         0.0052 -0.5187  0.0319 -0.0053  0.5362
                                        -0.0925 -0.0061 -0.6234  0.0489 -0.0148
                                         0.0546  0.0388  0.0729 -0.0332
 135. (0.00311) RY*( 2) O  8             s(  0.12%)p99.99( 99.05%)d 7.09(  0.83%)
                                         0.0000  0.0002  0.0083 -0.0063  0.0327
                                         0.0104 -0.2428  0.0342 -0.0038  0.6173
                                        -0.0428  0.0026  0.7397 -0.0107 -0.0280
                                        -0.0487 -0.0127  0.0443  0.0553
 136. (0.00054) RY*( 3) O  8             s( 77.93%)p 0.25( 19.64%)d 0.03(  2.42%)
                                         0.0000  0.0034  0.8560  0.2160 -0.0034
                                         0.0109  0.1480  0.2738 -0.0013 -0.0513
                                        -0.0700  0.0016  0.0634 -0.2965  0.1201
[...]
 O          0.013  0.203  0.004   -0.002  0.000  0.314    0.052  0.159  0.006
 C         -0.102 -0.022  0.121   -0.098 -0.133 -0.081   -0.044 -0.043 -0.042
 H         -0.167 -0.180  0.075   -0.152 -0.266 -0.158   -0.147 -0.305 -0.356
 H         -0.210  0.082  0.396   -0.193 -0.041  0.181   -0.234  0.143  0.190
 H         -0.156 -0.211 -0.005   -0.187 -0.302 -0.195   -0.200 -0.042 -0.029
 H         -0.146 -0.202  0.004    0.193  0.305 -0.202   -0.202 -0.010  0.002
 H         -0.202  0.074 -0.387    0.201  0.043  0.193   -0.236  0.152 -0.190
 H         -0.162 -0.175 -0.078    0.160  0.270 -0.162   -0.151 -0.283  0.360
 TransDip  -0.026 -0.023 -0.001    0.000  0.000 -0.129   -0.024 -0.063  0.005

 Mode:                13                     14                     15
 Frequency:       536.90                 602.16                 766.01
 Force Cnst:      1.0954                 1.0237                 4.5224
 Red. Mass:       6.4493                 4.7916                13.0815
 IR Active:          YES                    YES                    YES
 IR Intens:        6.127                 14.540                 76.818
 Raman Active:       YES                    YES                    YES
               X      Y      Z        X      Y      Z        X      Y      Z
 C          0.005 -0.008  0.402    0.038 -0.032  0.002   -0.441 -0.341 -0.003
 O         -0.009 -0.010 -0.130   -0.093 -0.061  0.000    0.381 -0.352 -0.001
 O          0.008 -0.002 -0.139    0.043 -0.050 -0.001   -0.052  0.467  0.002
 C          0.000  0.011  0.351    0.045  0.195  0.001   -0.268  0.042  0.005
 C         -0.024  0.159 -0.163    0.030 -0.153  0.237    0.009 -0.026  0.038
 O          0.006  0.013 -0.090   -0.081  0.206 -0.001    0.109  0.105 -0.001
 C         -0.018  0.002 -0.119    0.149 -0.054 -0.002    0.033  0.045  0.001
 O         -0.003 -0.011  0.160   -0.076  0.110  0.000    0.066  0.038  0.000
 C          0.029 -0.153 -0.150    0.032 -0.159 -0.237    0.008 -0.030 -0.040
 H          0.030 -0.149  0.009   -0.012 -0.273 -0.423   -0.026 -0.122 -0.108
 H          0.045 -0.169 -0.025   -0.050 -0.081 -0.200   -0.028  0.006  0.028
 H          0.060 -0.345 -0.285   -0.048 -0.084 -0.179   -0.026 -0.090 -0.082
 H         -0.031  0.344 -0.297   -0.048 -0.071  0.172   -0.029 -0.087  0.082
 H         -0.011  0.150 -0.006   -0.052 -0.076  0.206   -0.030  0.011 -0.037
 H         -0.010  0.198 -0.055   -0.014 -0.262  0.430   -0.026 -0.120  0.114
 TransDip   0.001  0.002  0.079    0.090  0.083 -0.001   -0.279 -0.034  0.000

 Mode:                16                     17                     18
 Frequency:       787.95                 811.58                 857.84
 Force Cnst:      1.9248                 1.1990                 0.8910
 Red. Mass:       5.2617                 3.0896                 2.0551
 IR Active:          YES                    YES                    YES
 IR Intens:        4.783                  1.839                 30.591
 Raman Active:       YES                    YES                    YES
               X      Y      Z        X      Y      Z        X      Y      Z
 C         -0.002 -0.001  0.377   -0.011  0.012 -0.023    0.000  0.000  0.131
 O          0.002  0.002 -0.089    0.006  0.033  0.005    0.000  0.000 -0.029
 O         -0.004  0.002 -0.090   -0.032 -0.003  0.005   -0.001  0.000 -0.029
 C          0.003 -0.007 -0.320    0.042 -0.071  0.021    0.002 -0.001 -0.148
 C         -0.019 -0.144  0.142   -0.042 -0.047  0.156    0.006  0.110 -0.019
 O          0.003 -0.007  0.054    0.030 -0.088 -0.003    0.000 -0.001  0.030
 C         -0.013  0.021 -0.209   -0.151  0.247  0.004   -0.002  0.004  0.164
 O          0.010  0.003 -0.003    0.116  0.047  0.000    0.001  0.001 -0.003
 C          0.012  0.136  0.111   -0.043 -0.061 -0.166   -0.008 -0.112 -0.022
 H         -0.067 -0.051 -0.005    0.026  0.119  0.280    0.042 -0.004 -0.272
 H         -0.124  0.265  0.419    0.109 -0.210 -0.170    0.017 -0.132 -0.405
 H         -0.093 -0.062 -0.021    0.145 -0.316 -0.359   -0.053  0.326  0.284
 H          0.118  0.008  0.041    0.133 -0.304  0.359    0.056 -0.329  0.302
 H          0.142 -0.291  0.453    0.098 -0.185  0.143   -0.013  0.116 -0.403
 H          0.072  0.071 -0.057    0.022  0.110 -0.276   -0.041  0.001 -0.280
 TransDip   0.002  0.001 -0.070    0.042  0.012  0.000    0.001  0.000  0.177

 Mode:                19                     20                     21
 Frequency:       937.81                 989.66                1029.79
 Force Cnst:      3.5364                 0.7810                 1.1824
 Red. Mass:       6.8245                 1.3534                 1.8924
 IR Active:          YES                    YES                    YES
 IR Intens:       55.417                  5.291                 59.338
 Raman Active:       YES                    YES                    YES
               X      Y      Z        X      Y      Z        X      Y      Z
 C         -0.139 -0.050 -0.001    0.000  0.000  0.047    0.008  0.000  0.000
 O          0.077 -0.057  0.000    0.000  0.000 -0.011   -0.007  0.011  0.000
 O         -0.157  0.099  0.001    0.000  0.000 -0.009    0.016 -0.010  0.000
 C          0.624  0.086  0.000    0.000  0.000 -0.076   -0.070 -0.005  0.001
 C         -0.060 -0.019 -0.035    0.098 -0.020 -0.022   -0.058 -0.087 -0.053
 O         -0.136 -0.032  0.000    0.000  0.000  0.014    0.012  0.005  0.000
 C         -0.003 -0.072  0.000   -0.002  0.001  0.042   -0.037 -0.055  0.000
 O         -0.081  0.009  0.000    0.002  0.001  0.008    0.117  0.134 -0.001
 C         -0.060 -0.017  0.036   -0.099  0.018 -0.022   -0.056 -0.085  0.055
 H          0.046  0.245  0.208    0.021  0.296  0.474    0.052  0.158 -0.047
 H          0.079 -0.136 -0.237    0.148 -0.216 -0.161    0.078 -0.202 -0.442
 H          0.079  0.171  0.156    0.187 -0.138 -0.153    0.039  0.305  0.308
 H          0.077  0.174 -0.165   -0.185  0.137 -0.159    0.045  0.297 -0.313
 H          0.078 -0.131  0.243   -0.147  0.209 -0.156    0.080 -0.196  0.452
 H          0.048  0.242 -0.209   -0.023 -0.286  0.483    0.054  0.169  0.031
 TransDip   0.226 -0.076  0.001   -0.002 -0.001  0.074   -0.160 -0.187  0.002

 Mode:                22                     23                     24
 Frequency:      1112.72                1161.04                1243.85
 Force Cnst:      1.8549                 1.7103                 4.4160
 Red. Mass:       2.5427                 2.1534                 4.8444
 IR Active:          YES                    YES                    YES
 IR Intens:       55.707                  8.537                212.251
 Raman Active:       YES                    YES                    YES
               X      Y      Z        X      Y      Z        X      Y      Z
 C          0.000  0.000  0.035   -0.009 -0.007  0.000    0.003 -0.011  0.000
 O          0.000  0.000 -0.009    0.002  0.005  0.000    0.000  0.015  0.000
 O          0.000  0.000 -0.007   -0.010  0.001  0.000    0.007 -0.001  0.000
 C          0.000  0.000 -0.066    0.054 -0.005  0.000   -0.072 -0.031  0.000
 C         -0.060 -0.045 -0.099    0.091 -0.073 -0.035   -0.088 -0.064 -0.024
 O          0.000  0.000  0.014    0.000 -0.016  0.000    0.020 -0.009  0.000
 C          0.000  0.001  0.312   -0.149  0.211  0.001    0.380  0.315  0.000
 O          0.001  0.000 -0.060   -0.010 -0.054  0.000   -0.170 -0.159  0.001
 C          0.059  0.044 -0.102    0.093 -0.073  0.034   -0.088 -0.063  0.023
 H         -0.065 -0.241 -0.006    0.015 -0.215 -0.445    0.095  0.305  0.129
 H         -0.052  0.126  0.356   -0.155  0.164 -0.033    0.068 -0.183 -0.257
 H         -0.054 -0.331 -0.340   -0.200  0.229  0.253    0.174  0.225  0.179
 H          0.058  0.316 -0.337   -0.195  0.223 -0.259    0.172  0.223 -0.187
 H          0.054 -0.120  0.356   -0.153  0.161  0.035    0.066 -0.175  0.261
 H          0.065  0.244 -0.021    0.014 -0.201  0.445    0.096  0.302 -0.135
 TransDip  -0.003  0.000  0.239    0.054  0.076  0.001    0.305  0.353 -0.003

 Mode:                25                     26                     27
 Frequency:      1328.27                1331.66                1352.26
 Force Cnst:      9.1361                 1.2609                 1.3827
 Red. Mass:       8.7890                 1.2068                 1.2834
 IR Active:          YES                    YES                    YES
 IR Intens:      127.008                 23.852                 58.334
 Raman Active:       YES                    YES                    YES
               X      Y      Z        X      Y      Z        X      Y      Z
 C          0.453  0.337 -0.001   -0.011 -0.008  0.000    0.050  0.018  0.000
 O          0.008 -0.386  0.000    0.000  0.009  0.001    0.000 -0.028  0.000
 O         -0.325  0.146  0.001    0.008 -0.004  0.000   -0.036  0.016  0.000
 C         -0.063 -0.019  0.000    0.001  0.000 -0.001    0.005  0.006  0.000
 C          0.004 -0.034  0.033   -0.014  0.052 -0.075   -0.014  0.054 -0.081
 O          0.006 -0.005  0.000    0.000  0.000  0.001   -0.001 -0.007  0.000
 C         -0.004  0.009  0.000    0.000 -0.001 -0.003    0.010  0.018  0.000
 O          0.020  0.008  0.000    0.000  0.000  0.001   -0.010 -0.011  0.000
 C          0.008 -0.052 -0.055    0.014 -0.055 -0.076   -0.013  0.053  0.075
 H          0.088  0.176  0.212    0.097  0.194  0.329   -0.097 -0.188 -0.314
 H         -0.156  0.118  0.268   -0.189  0.151  0.372    0.187 -0.148 -0.359
 H         -0.015  0.256  0.170   -0.053  0.323  0.209    0.050 -0.303 -0.194
 H          0.000  0.156 -0.110    0.055 -0.313  0.213    0.057 -0.318  0.213
 H         -0.097  0.068 -0.157    0.184 -0.139  0.366    0.195 -0.146  0.384
 H          0.057  0.110 -0.114   -0.094 -0.179  0.323   -0.100 -0.185  0.338
 TransDip   0.313  0.180  0.009   -0.026 -0.007  0.154    0.239 -0.053  0.004

 Mode:                28                     29                     30
 Frequency:      1482.65                1495.27                1500.18
 Force Cnst:      1.3603                 1.3946                 1.4026
 Red. Mass:       1.0503                 1.0587                 1.0578
 IR Active:          YES                    YES                    YES
 IR Intens:        0.320                 14.203                  1.328
 Raman Active:       YES                    YES                    YES
               X      Y      Z        X      Y      Z        X      Y      Z
 C          0.000  0.000  0.000   -0.017  0.016  0.000   -0.001  0.001  0.000
 O          0.000  0.000  0.001    0.001 -0.007  0.000    0.000  0.000 -0.001
 O          0.000  0.000  0.000    0.011 -0.006  0.000    0.000  0.000  0.000
 C          0.000  0.000  0.001    0.002  0.004  0.000    0.000  0.000  0.001
 C          0.027  0.028  0.014   -0.018 -0.028 -0.022    0.035 -0.024 -0.023
 O          0.000  0.000  0.000    0.000 -0.003  0.000    0.000  0.000  0.000
 C          0.000  0.000  0.018   -0.015 -0.016  0.000   -0.001 -0.001 -0.006
 O          0.000  0.000 -0.003    0.002  0.003  0.000    0.000  0.000  0.001
 C         -0.027 -0.028  0.017   -0.014 -0.029  0.025   -0.036  0.020 -0.022
 H          0.149  0.340 -0.341    0.170  0.382 -0.291   -0.110 -0.198 -0.123
 H         -0.165  0.117  0.139   -0.247  0.208  0.037    0.288 -0.293  0.315
 H          0.421 -0.090 -0.085    0.309 -0.163 -0.119    0.301  0.208  0.091
 H         -0.416  0.081 -0.084    0.345 -0.139  0.113   -0.277 -0.223  0.107
 H          0.161 -0.110  0.146   -0.223  0.180 -0.077   -0.317  0.323  0.307
 H         -0.145 -0.340 -0.325    0.161  0.375  0.298    0.128  0.234 -0.103
 TransDip  -0.001  0.000  0.018   -0.101  0.065 -0.002   -0.005  0.004  0.036

 Mode:                31                     32                     33
 Frequency:      1516.41                1644.71                1734.72
 Force Cnst:      1.4305                18.1787                23.2886
 Red. Mass:       1.0559                11.4060                13.1352
 IR Active:          YES                    YES                    YES
 IR Intens:        6.457                507.685                273.486
 Raman Active:       YES                    YES                    YES
               X      Y      Z        X      Y      Z        X      Y      Z
 C          0.000 -0.003  0.000   -0.467  0.671  0.002   -0.012  0.015  0.000
 O          0.000  0.002  0.000    0.052 -0.297  0.000   -0.003 -0.023  0.000
 O         -0.001  0.001  0.000    0.277 -0.179 -0.001    0.027 -0.010  0.000
 C          0.006  0.002  0.000    0.038 -0.041  0.000   -0.125  0.808 -0.002
 C         -0.036  0.012  0.017   -0.001  0.013 -0.005    0.006 -0.009  0.011
 O          0.000 -0.002  0.000   -0.010 -0.002  0.000    0.073 -0.558  0.001
 C         -0.026  0.011  0.000    0.008  0.030  0.000    0.012 -0.008  0.000
 O          0.004 -0.001  0.000   -0.001 -0.008  0.000   -0.010 -0.010  0.000
 C         -0.037  0.012 -0.017   -0.001  0.013  0.005    0.006 -0.009 -0.011
 H         -0.079 -0.131 -0.214   -0.060 -0.136  0.028    0.018 -0.013  0.049
 H          0.242 -0.257  0.351    0.126 -0.107 -0.091   -0.002 -0.002  0.011
 H          0.384  0.191  0.078   -0.070  0.016  0.008   -0.034  0.042  0.017
 H          0.377  0.186 -0.080   -0.071  0.015 -0.008   -0.034  0.042 -0.018
 H          0.238 -0.260 -0.338    0.124 -0.103  0.095   -0.001 -0.002 -0.011
 H         -0.078 -0.125  0.212   -0.060 -0.136 -0.026    0.017 -0.014 -0.049
 TransDip   0.071 -0.040  0.001   -0.453  0.561  0.003   -0.167  0.502 -0.003

 Mode:                34                     35                     36
 Frequency:      2981.00                2988.81                3039.26
 Force Cnst:      5.4226                 5.4484                 5.9813
 Red. Mass:       1.0357                 1.0352                 1.0990
 IR Active:          YES                    YES                    YES
 IR Intens:       92.783                144.337                 71.202
 Raman Active:       YES                    YES                    YES
               X      Y      Z        X      Y      Z        X      Y      Z
 C          0.000  0.000  0.000    0.000  0.000  0.000    0.000  0.000  0.000
 O          0.000  0.000  0.000    0.000  0.000  0.000    0.000  0.000  0.000
 O          0.000  0.000  0.000    0.000  0.000  0.000    0.000  0.000  0.000
 C          0.000  0.000 -0.001    0.002 -0.001  0.000    0.000  0.000  0.000
 C         -0.023  0.016 -0.024   -0.020  0.014 -0.023    0.042 -0.035 -0.038
 O          0.000  0.000  0.000    0.000  0.001  0.000    0.000  0.000  0.000
 C          0.000  0.000  0.000   -0.003 -0.001  0.000    0.000  0.000 -0.001
 O          0.000  0.000  0.000    0.001  0.000  0.000    0.000  0.000  0.000
 C          0.022 -0.015 -0.022   -0.022  0.015  0.025   -0.039  0.032 -0.036
 H         -0.481  0.206 -0.021    0.504 -0.217  0.019    0.372 -0.152  0.002
 H          0.183  0.178 -0.004   -0.199 -0.195  0.006    0.063  0.082 -0.007
 H          0.038 -0.209  0.281   -0.039  0.231 -0.316    0.033 -0.312  0.441
 H         -0.041  0.230  0.297   -0.037  0.221  0.290   -0.036  0.340  0.461
 H         -0.198 -0.194  0.000   -0.188 -0.185 -0.002   -0.070 -0.091 -0.006
 H          0.515 -0.221 -0.016    0.468 -0.202 -0.012   -0.398  0.163 -0.003
 TransDip  -0.009  0.005 -0.308   -0.331  0.196  0.009    0.009 -0.007 -0.270

 Mode:                37                     38                     39
 Frequency:      3045.66                3089.35                3097.04
 Force Cnst:      5.9969                 6.1871                 6.2116
 Red. Mass:       1.0973                 1.1003                 1.0992
 IR Active:          YES                    YES                    YES
 IR Intens:      103.193                  5.662                 86.991
 Raman Active:       YES                    YES                    YES
               X      Y      Z        X      Y      Z        X      Y      Z
 C          0.000  0.000  0.000    0.000  0.000  0.000    0.000 -0.001  0.000
 O          0.000  0.000  0.000    0.000  0.000 -0.001   -0.001  0.000  0.000
 O          0.000  0.000  0.000    0.000  0.000  0.000    0.000  0.000  0.000
 C          0.001  0.000  0.000    0.000  0.000  0.000    0.000  0.000  0.000
 C         -0.038  0.033  0.035   -0.053 -0.052 -0.016   -0.037 -0.034 -0.010
 O          0.000  0.000  0.000    0.000  0.000  0.000    0.000  0.000  0.000
 C         -0.003  0.003  0.000   -0.001  0.000 -0.002   -0.003 -0.002  0.000
 O          0.001 -0.001  0.000    0.000  0.000  0.001    0.001  0.000  0.000
 C         -0.040  0.035 -0.038    0.036  0.036 -0.011   -0.054 -0.050  0.015
 H          0.407 -0.168 -0.003   -0.104  0.052 -0.006    0.166 -0.083  0.007
 H          0.047  0.068 -0.009   -0.364 -0.372 -0.004    0.529  0.542  0.007
 H          0.036 -0.327  0.467    0.023 -0.104  0.153   -0.031  0.140 -0.208
 H          0.034 -0.315 -0.431   -0.033  0.157  0.221   -0.021  0.101  0.143
 H          0.048  0.068  0.007    0.526  0.539 -0.017    0.363  0.373 -0.013
 H          0.383 -0.159  0.007    0.155 -0.078 -0.006    0.117 -0.059 -0.004
 TransDip  -0.253  0.204 -0.011   -0.034 -0.047  0.050   -0.169 -0.246 -0.008

 STANDARD THERMODYNAMIC QUANTITIES AT   298.15 K  AND     1.00 ATM

   This Molecule has  1 Imaginary Frequencies
   Zero point vibrational energy:       65.459 kcal/mol

   Atom    1 Element C  Has Mass   12.00000
   Atom    2 Element O  Has Mass   15.99491
   Atom    3 Element O  Has Mass   15.99491
   Atom    4 Element C  Has Mass   12.00000
   Atom    5 Element C  Has Mass   12.00000
   Atom    6 Element O  Has Mass   15.99491
   Atom    7 Element C  Has Mass   12.00000
   Atom    8 Element O  Has Mass   15.99491
   Atom    9 Element C  Has Mass   12.00000
   Atom   10 Element H  Has Mass    1.00783
   Atom   11 Element H  Has Mass    1.00783
   Atom   12 Element H  Has Mass    1.00783
   Atom   13 Element H  Has Mass    1.00783
   Atom   14 Element H  Has Mass    1.00783
   Atom   15 Element H  Has Mass    1.00783
   Molecular Mass:   130.026620 amu
   Principal axes and moments of inertia in amu*Bohr^2:
                             1           2           3
    Eigenvalues --      707.99197  1385.70939  1701.32280
          X               0.99896    -0.04565     0.00027
          Y               0.04565     0.99896     0.00061
          Z              -0.00030    -0.00060     1.00000
   Rotational Symmetry Number is   1
   The Molecule is an Asymmetric Top
   Translational Enthalpy:        0.889 kcal/mol
   Rotational Enthalpy:           0.889 kcal/mol
   Vibrational Enthalpy:         69.045 kcal/mol
   gas constant (RT):             0.592 kcal/mol
   Translational Entropy:        40.501  cal/mol.K
   Rotational Entropy:           28.902  cal/mol.K
   Vibrational Entropy:          20.177  cal/mol.K

   Total Enthalpy:               71.415 kcal/mol
   Total Entropy:                89.580  cal/mol.K
Archival summary:
1\1\bt2600-16\FREQ\ProcedureUnspecified\6-31+G*\456(2-,1)\emavera\MonJun520:11:392017MonJun520:11:392017\0\\#,FREQ,ProcedureUnspecified,6-31+G*,\\-2,1\O\C,1,1.22034\C,2,1.60114,1,119.503\O,3,1.34012,2,114.042,1,-0.361567,0\C,3,1.57644,2,106.201,1,-123.414,0\H,5,1.0969,3,113.457,2,-56.5969,0\H,5,1.1004,3,108.571,2,65.7754,0\H,5,1.10164,3,106.805,2,-178.635,0\C,3,1.57783,2,105.91,1,122.536,0\H,9,1.09727,3,113.569,2,56.8094,0\H,9,1.10044,3,108.55,2,-65.5739,0\H,9,1.10171,3,106.911,2,178.831,0\C,2,1.62165,1,117.35,3,179.908,0\O,13,1.25922,2,115.375,1,-0.223487,0\O,13,1.26565,2,117.356,1,179.746,0\\\@

 Total job time:  2945.75s(wall), 2945.67s(cpu) 
 Mon Jun  5 20:11:39 2017

        *************************************************************
        *                                                           *
        *  Thank you very much for using Q-Chem.  Have a nice day.  *
        *                                                           *
        *************************************************************


0 sent ACK to 0 
now end server 0 ... 
cleanup process ... done
